VARIABLES="w (rad/s)"
"abs(F   1   1)" "angle(F   1   1)"
"abs(F   1   2)" "angle(F   1   2)"
"abs(F   1   3)" "angle(F   1   3)"
"abs(F   1   4)" "angle(F   1   4)"
"abs(F   1   5)" "angle(F   1   5)"
"abs(F   1   6)" "angle(F   1   6)"
Zone t="Diffraction force - beta =   0.000 deg",I=    50,F=POINT
  0.1000000E+00  0.8182094E+04 -0.1570712E+01  0.6527098E-04  0.4865194E+00  0.3876058E+04 -0.3028856E+01  0.2091112E-02  0.3116507E+01  0.2310555E+03  0.1568753E+01  0.1907349E-05  0.0000000E+00
  0.2000000E+00  0.1676738E+05 -0.1570409E+01  0.6997890E-03 -0.2865539E+01  0.1483600E+05 -0.3016794E+01  0.4936964E-02  0.1738619E-01  0.6828185E+03  0.1564359E+01  0.4718520E-04 -0.1325818E+01
  0.3000000E+00  0.2634496E+05 -0.1569696E+01  0.1374906E-02  0.8890153E-01  0.3257447E+05 -0.3000762E+01  0.3824526E-02 -0.3608720E+00  0.1597640E+04  0.1558830E+01  0.4885196E-03  0.1539557E+01
  0.4000000E+00  0.3771217E+05 -0.1568055E+01  0.2670680E-02  0.9970558E+00  0.5677777E+05 -0.2976723E+01  0.4618759E-02  0.3073816E+01  0.3351467E+04  0.1551261E+01  0.6291360E-04  0.1325818E+01
  0.5000000E+00  0.5173558E+05 -0.1564160E+01  0.2127985E-02  0.1242243E+01  0.8673215E+05 -0.2941676E+01  0.3466408E-02  0.1045098E+01  0.6375418E+04  0.1538355E+01  0.1856312E-03 -0.1405648E+01
  0.6000000E+00  0.6965185E+05 -0.1554981E+01  0.6154647E-02  0.2394772E+01  0.1203685E+06 -0.2894709E+01  0.2167187E-01 -0.2915058E+01  0.1108259E+05  0.1514552E+01  0.5033088E-03  0.1815775E+01
  0.7000000E+00  0.9323059E+05 -0.1535490E+01  0.1597516E-02 -0.1270191E+01  0.1542045E+06 -0.2840805E+01  0.3676629E-01  0.2799630E+01  0.1823563E+05  0.1476197E+01  0.1466115E-02 -0.1612439E+01
  0.8000000E+00  0.1209297E+06 -0.1499296E+01  0.9184575E-02  0.2302130E+01  0.1847757E+06 -0.2788471E+01  0.4511456E-01 -0.2447201E+01  0.2840597E+05  0.1424007E+01  0.1710074E-02  0.1535097E+01
  0.9000000E+00  0.1528304E+06 -0.1441958E+01  0.3574728E-02 -0.2118536E+01  0.2102661E+06 -0.2742949E+01  0.3653637E-01  0.7978017E+00  0.4301969E+05  0.1371778E+01  0.1466115E-02  0.1529154E+01
  0.1000000E+01  0.1834764E+06 -0.1358700E+01  0.2866944E-01  0.1696736E+01  0.2299895E+06 -0.2706287E+01  0.1304183E-01  0.2890939E+01  0.6349273E+05  0.1334444E+01  0.1544081E-02 -0.1892547E+01
  0.1100000E+01  0.2093982E+06 -0.1251030E+01  0.2722252E-01  0.1562949E+01  0.2427797E+06 -0.2676070E+01  0.5419583E-01 -0.2787963E+01  0.8918898E+05  0.1319007E+01  0.2157055E-02 -0.1132460E+01
  0.1200000E+01  0.2236890E+06 -0.1124178E+01  0.7919121E-02  0.3079895E+01  0.2488052E+06 -0.2651580E+01  0.8785727E-01  0.2402633E+01  0.1203942E+06  0.1333621E+01  0.4920812E-03 -0.1446441E+01
  0.1300000E+01  0.2210571E+06 -0.9884122E+00  0.1952982E-01 -0.1347043E+01  0.2486209E+06 -0.2635118E+01  0.6611937E-01 -0.3324055E+00  0.1545984E+06  0.1376042E+01  0.1611374E-02 -0.2000559E+01
  0.1400000E+01  0.1991795E+06 -0.8565876E+00  0.1684905E-01 -0.1360968E+01  0.2413615E+06 -0.2621462E+01  0.2851924E-01 -0.2009557E+01  0.1856470E+06  0.1425905E+01  0.1637745E-02 -0.1107149E+01
  0.1500000E+01  0.1613016E+06 -0.7406352E+00  0.3268117E-01  0.1737787E+01  0.2289635E+06 -0.2614391E+01  0.7587245E-01  0.1871336E+01  0.2123355E+06  0.1480088E+01  0.4057805E-02 -0.2772259E+01
  0.1600000E+01  0.1117649E+06 -0.6500670E+00  0.1579431E-01 -0.1493432E+01  0.2113875E+06 -0.2611254E+01  0.2428130E-01  0.2593252E+01  0.2294470E+06  0.1520224E+01  0.3662109E-03 -0.3141592E+01
  0.1700000E+01  0.5642125E+05 -0.6137801E+00  0.1591602E-01  0.1647568E+01  0.1904457E+06 -0.2613493E+01  0.3106159E-01  0.8983570E+00  0.2387685E+06  0.1552373E+01  0.6905340E-03 -0.2356194E+01
  0.1800000E+01  0.5825863E+04 -0.2199184E+01  0.1135516E-01  0.1549294E+01  0.1669366E+06 -0.2621310E+01  0.4914306E-01  0.2324774E+00  0.2398546E+06  0.1571500E+01  0.1006618E-02 -0.1325818E+01
  0.1900000E+01  0.5641461E+05  0.2866978E+01  0.1832072E-01 -0.1604117E+01  0.1424686E+06 -0.2635339E+01  0.5077755E-01 -0.3120255E+01  0.2324010E+06  0.1577778E+01  0.4715139E-02  0.1941688E+01
  0.2000000E+01  0.1057523E+06  0.2866160E+01  0.7110530E-02  0.9685090E+00  0.1176500E+06 -0.2658591E+01  0.2825728E-01  0.3282395E+00  0.2201806E+06  0.1583013E+01  0.1091830E-02  0.2034444E+01
  0.2100000E+01  0.1476450E+06  0.2891106E+01  0.2818212E-02  0.2833540E+01  0.9376966E+05 -0.2700794E+01  0.1607912E-01 -0.1421249E+01  0.2018408E+06  0.1576928E+01  0.1006618E-02  0.2896614E+01
  0.2200000E+01  0.1797117E+06  0.2918213E+01  0.5908206E-02  0.5980310E+00  0.6898581E+05 -0.2640113E+01  0.1065842E-01  0.2611792E+01  0.1798221E+06  0.1569924E+01  0.1968325E-02 -0.2089942E+01
  0.2300000E+01  0.2001174E+06  0.2941790E+01  0.6815488E-02  0.1146207E+01  0.5247111E+05 -0.2730623E+01  0.4182561E-02 -0.5403022E+00  0.1560755E+06  0.1571252E+01  0.1525879E-03  0.1570796E+01
  0.2400000E+01  0.2083704E+06  0.2966612E+01  0.2379972E-01 -0.1540017E+01  0.3658512E+05 -0.2803299E+01  0.2383842E-01 -0.4418074E-01  0.1307702E+06  0.1573170E+01  0.1258272E-02 -0.1969319E+01
  0.2500000E+01  0.2045851E+06  0.2997999E+01  0.4384772E-02  0.6769149E+00  0.2317613E+05 -0.2895515E+01  0.1110211E-01 -0.1240140E+00  0.1061258E+06  0.1596698E+01  0.2629475E-02 -0.1190290E+01
  0.2600000E+01  0.1892346E+06  0.3080247E+01  0.5725930E-02  0.2592033E+01  0.1315549E+05 -0.3045012E+01  0.5356900E-02 -0.1994038E-01  0.8453014E+05  0.1732689E+01  0.4026470E-02 -0.2896614E+01
  0.2700000E+01  0.1580598E+06  0.2881886E+01  0.2339327E-02 -0.2877629E+01  0.6305773E+04  0.2912784E+01  0.2467316E-02  0.1371581E+01  0.5875314E+05  0.1469992E+01  0.1464844E-02  0.0000000E+00
  0.2800000E+01  0.1238146E+06  0.2963366E+01  0.7425247E-03 -0.2976444E+01  0.2698250E+04  0.1991518E+01  0.2014218E-03  0.4297623E+00  0.4118924E+05  0.1591699E+01  0.1760523E-02 -0.5880026E+00
  0.2900000E+01  0.8412004E+05  0.2989549E+01  0.1474981E-02  0.2714965E+01  0.3184625E+04  0.7995586E+00  0.1643991E-02  0.2464904E+01  0.2625416E+05  0.1674192E+01  0.7816314E-03  0.2466852E+01
  0.3000000E+01  0.4333680E+05  0.3010803E+01  0.5889233E-02 -0.3100125E+01  0.4200344E+04  0.2644662E+00  0.1555859E-02 -0.2033347E+01  0.1480677E+05  0.1733109E+01  0.2008198E-02  0.5078365E+00
  0.3100000E+01  0.4641068E+04  0.3103973E+01  0.5459150E-03  0.2034444E+01  0.5657187E+04 -0.5040008E+00  0.6071819E-02  0.1377344E+01  0.6453148E+04  0.1625440E+01  0.2441406E-03  0.0000000E+00
  0.3200000E+01  0.2803118E+05 -0.1230121E+00  0.2788979E-02  0.4048918E+00  0.1346626E+05  0.7124022E+00  0.1990177E-02 -0.3026562E+00  0.3510448E+04  0.3664121E+00  0.6905339E-03  0.7853982E+00
  0.3300000E+01  0.5124205E+05 -0.8596232E-01  0.3770372E-02 -0.1063698E+01  0.5119917E+04  0.5507611E+00  0.5479405E-03  0.1041720E+01  0.7811765E+04 -0.1557802E+00  0.8802615E-03  0.5880026E+00
  0.3400000E+01  0.6223559E+05 -0.2552229E-01  0.6776002E-03  0.3006065E+01  0.3031976E+04  0.3063052E+00  0.1365834E-02 -0.1554911E+01  0.1277390E+05 -0.9609660E-01  0.2729575E-03 -0.2677945E+01
  0.3500000E+01  0.5132733E+05  0.1772317E+00  0.1968325E-02 -0.3017238E+01  0.1474873E+04  0.1391913E+00  0.7559071E-03 -0.1937245E+01  0.1934898E+05  0.2023287E+00  0.4920812E-03 -0.3017238E+01
  0.3600000E+01  0.7625962E+05 -0.8788856E+00  0.4279430E-02 -0.1627877E+01  0.1909770E+03 -0.1531151E+00  0.9700138E-03  0.1061406E+01  0.2551575E+04  0.2519007E+01  0.1509926E-02  0.1815775E+01
  0.3700000E+01  0.5489688E+05 -0.3875663E+00  0.9073528E-03 -0.1227772E+01  0.9104901E+03  0.2918321E+01  0.1465625E-02  0.1920123E+01  0.7931927E+04 -0.3155438E+00  0.3452670E-03  0.2356194E+01
  0.3800000E+01  0.3076989E+05 -0.2993696E+00  0.7349606E-03 -0.7266424E+00  0.2103948E+04  0.2644217E+01  0.1603742E-03  0.4424195E-01  0.6275542E+04 -0.1680941E+00  0.7124401E-03 -0.7551045E+00
  0.3900000E+01  0.7816806E+04 -0.2468897E+00  0.4060559E-02  0.2313667E+01  0.4573534E+04  0.2505384E+01  0.7187364E-03  0.1746852E+01  0.2014948E+04 -0.2091270E+00  0.6224389E-03  0.1973956E+00
  0.4000000E+01  0.1082177E+05  0.2894818E+01  0.1377016E-02 -0.2918116E+01  0.6081760E+04 -0.2712236E+01  0.1240736E-02 -0.3000076E+01  0.3360900E+04 -0.2931806E+01  0.6905340E-03 -0.2356194E+01
  0.4100000E+01  0.2094434E+05  0.2938522E+01  0.1530754E-02 -0.1650626E+01  0.2389753E+04 -0.2640977E+01  0.5274577E-03 -0.2261212E+00  0.8512903E+04 -0.2896223E+01  0.5033088E-03  0.2449787E+00
  0.4200000E+01  0.1552252E+05  0.2873576E+01  0.1204188E-02  0.1723446E+01  0.1002966E+04 -0.2879098E+01  0.1419164E-02  0.1295335E+01  0.1235221E+05 -0.2646650E+01  0.7816314E-03  0.2466852E+01
  0.4300000E+01  0.4096362E+05  0.1565027E+01  0.4094363E-03  0.1107149E+01  0.3050421E+01  0.3252373E-01  0.2040873E-02  0.1573892E+01  0.5935125E+04 -0.1580424E+01  0.7425247E-03  0.1735945E+01
  0.4400000E+01  0.3796968E+05  0.2362948E+01  0.3112195E-03 -0.1973956E+00  0.1044859E+04 -0.2385306E+00  0.1467391E-03  0.3900459E-01  0.5782188E+04  0.2811070E+01  0.3860202E-03  0.1249046E+01
  0.4500000E+01  0.1950867E+05  0.2478266E+01  0.4693783E-03  0.1304033E+00  0.2377985E+04 -0.4234864E+00  0.5870068E-03  0.5942546E+00  0.4696902E+04  0.2999619E+01  0.1378706E-02 -0.2054243E+01
  0.4600000E+01  0.4622869E+04  0.2289228E+01  0.1025409E-02  0.2208345E+01  0.5016147E+04 -0.2538632E+00  0.4279023E-03 -0.1983590E+01  0.1254682E+04  0.2653317E+01  0.2589502E-03 -0.2356194E+01
  0.4700000E+01  0.4648402E+04 -0.4018929E+00  0.6080584E-03  0.1264917E+01  0.3644579E+04  0.3993126E+00  0.1228453E-02  0.2914314E+01  0.2874564E+04  0.5410529E+00  0.2173400E-02 -0.2236766E+01
  0.4800000E+01  0.6186731E+04 -0.1297867E+01  0.9808446E-03  0.1477320E+01  0.1622036E+04  0.3253249E+00  0.8203817E-04 -0.2325162E-01  0.5318205E+04  0.7030992E+00  0.1079822E-02  0.8253769E+00
  0.4900000E+01  0.2507903E+05 -0.1857306E+01  0.9673474E-03 -0.2951158E+01  0.4958488E+03  0.5408661E-01  0.3103653E-03 -0.9567979E+00  0.3365765E+04  0.1617184E+01  0.3186458E-02  0.2481809E+01
  0.5000000E+01  0.2513965E+05 -0.1169680E+01  0.2200654E-03 -0.5880026E+00  0.5166155E+03  0.2950282E+01  0.2155436E-03 -0.1559735E+01  0.2155075E+04 -0.7101557E+00  0.2860199E-02 -0.6947383E+00
