VARIABLES="w (rad/s)"
"abs(F   1   1)" "angle(F   1   1)"
"abs(F   1   2)" "angle(F   1   2)"
"abs(F   1   3)" "angle(F   1   3)"
"abs(F   1   4)" "angle(F   1   4)"
"abs(F   1   5)" "angle(F   1   5)"
"abs(F   1   6)" "angle(F   1   6)"
Zone t="Diffraction force - beta =   0.000 deg",I=    50,F=POINT
  0.1000000E+00  0.2392796E+05 -0.1570767E+01  0.2471601E-01 -0.3086826E-02  0.9165072E+06 -0.4757731E-03  0.1668854E+00 -0.3140718E+01  0.1642587E+05 -0.1570767E+01  0.9789456E-03  0.3117897E-01
  0.2000000E+00  0.4890437E+05 -0.1570663E+01  0.1739384E-01  0.9211259E-02  0.8952569E+06 -0.2062775E-02  0.1470258E-01  0.9989289E-02  0.3308495E+05 -0.1570660E+01  0.1002162E-02  0.1682776E+00
  0.3000000E+00  0.7628688E+05 -0.1570415E+01  0.3078612E-02 -0.9912948E-02  0.8604872E+06 -0.5313683E-02  0.3348792E+00 -0.3576864E-02  0.5028443E+05 -0.1570416E+01  0.3055570E-03  0.1520838E+01
  0.4000000E+00  0.1078940E+06 -0.1569839E+01  0.3718693E-01  0.3083704E+01  0.8127711E+06 -0.1146545E-01  0.2072168E-01  0.3136806E+01  0.6838699E+05 -0.1569839E+01  0.5072256E-03  0.1206237E+00
  0.5000000E+00  0.1459346E+06 -0.1568444E+01  0.3855627E-01  0.3800150E-01  0.7533846E+06 -0.2286408E-01  0.1218807E+00  0.1984462E-01  0.8791042E+05 -0.1568442E+01  0.9160358E-03 -0.1537475E+01
  0.6000000E+00  0.1930477E+06 -0.1565090E+01  0.1504145E-01  0.3673195E+00  0.6854370E+06 -0.4292893E-01  0.1463693E-01 -0.2572385E+01  0.1093078E+06 -0.1565096E+01  0.8631675E-03 -0.2356195E+01
  0.7000000E+00  0.2515427E+06 -0.1557713E+01  0.3565999E-01 -0.3138169E+01  0.6137444E+06 -0.7450800E-01  0.7691697E-01  0.1770854E+00  0.1317667E+06 -0.1557723E+01  0.5627162E-03  0.2922923E+01
  0.8000000E+00  0.3186774E+06 -0.1543683E+01  0.8335537E-01  0.3054347E+01  0.5427047E+06 -0.1180187E+00  0.2832992E+00 -0.9645300E-01  0.1531813E+06 -0.1543671E+01  0.2930323E-02  0.1549966E+01
  0.9000000E+00  0.3920785E+06 -0.1520693E+01  0.4147115E-01 -0.2978985E+01  0.4745119E+06 -0.1728653E+00  0.1328997E+00  0.2950997E+01  0.1699143E+06 -0.1520720E+01  0.7349597E-03 -0.7266428E+00
  0.1000000E+01  0.4634414E+06 -0.1487359E+01  0.3978093E-01  0.2396347E+01  0.4099693E+06 -0.2388273E+00  0.6367382E-01  0.3120503E+01  0.1786429E+06 -0.1487476E+01  0.3417969E-02 -0.1570797E+01
  0.1100000E+01  0.5262931E+06 -0.1445398E+01  0.3241813E-01  0.9898432E+00  0.3506107E+06 -0.3160693E+00  0.2873555E+00 -0.6195503E-01  0.1783792E+06 -0.1445904E+01  0.4150839E-02 -0.1225794E+01
  0.1200000E+01  0.5709557E+06 -0.1400761E+01  0.6513107E-01 -0.3374246E-01  0.2967240E+06 -0.4056679E+00  0.2124209E+00  0.2862879E+01  0.1670805E+06 -0.1400671E+01  0.3461828E-02  0.1411444E+01
  0.1300000E+01  0.5907514E+06 -0.1363500E+01  0.1869759E-01 -0.1107149E+01  0.2478064E+06 -0.5082990E+00  0.2245733E+00 -0.9731587E-01  0.1455189E+06 -0.1363719E+01  0.1476243E-02 -0.1695152E+01
  0.1400000E+01  0.5844548E+06 -0.1345672E+01  0.1974525E-01 -0.1860773E+01  0.2056045E+06 -0.6229413E+00  0.1097707E+00 -0.1975591E+00  0.1196070E+06 -0.1344770E+01  0.2441406E-02  0.1570796E+01
  0.1500000E+01  0.5582245E+06 -0.1355885E+01  0.3704366E-01  0.1966601E+01  0.1685059E+06 -0.7527225E+00  0.8686111E-01  0.2087459E+01  0.9089564E+05 -0.1357576E+01  0.4620970E-02 -0.2928654E+01
  0.1600000E+01  0.5194695E+06 -0.1398677E+01  0.1331462E-01 -0.1534116E+01  0.1371020E+06 -0.8944981E+00  0.8062377E-01  0.2988548E+01  0.6642102E+05 -0.1395271E+01  0.2939843E-02 -0.2414951E+01
  0.1700000E+01  0.4757371E+06 -0.1473693E+01  0.3178057E-01  0.2573832E+01  0.1104764E+06 -0.1052452E+01  0.8829830E-01  0.3618450E+00  0.4513229E+05 -0.1473178E+01  0.5329669E-03 -0.1158386E+01
  0.1800000E+01  0.4312305E+06 -0.1578738E+01  0.6069315E-02  0.2567536E+01  0.8822695E+05 -0.1224465E+01  0.1185013E+00  0.1101880E+00  0.2850266E+05 -0.1576715E+01  0.7349606E-02  0.1653937E+01
  0.1900000E+01  0.3891070E+06 -0.1710805E+01  0.2257211E-01 -0.2248916E+01  0.6992080E+05 -0.1415893E+01  0.2238062E-02 -0.1046899E+01  0.1723939E+05 -0.1665049E+01  0.7340476E-02  0.1637365E+01
  0.2000000E+01  0.3501627E+06 -0.1865677E+01  0.9271720E-02  0.1586553E+00  0.5471609E+05 -0.1623085E+01  0.3944303E-01  0.2314672E+00  0.8396805E+04 -0.1896874E+01  0.1544081E-02  0.1892547E+01
  0.2100000E+01  0.3150535E+06 -0.2042056E+01  0.1114523E-01  0.2638750E+01  0.4178781E+05 -0.1863709E+01  0.5366904E-01 -0.2863371E+01  0.3258917E+04 -0.1960316E+01  0.1006617E-02 -0.2896614E+01
  0.2200000E+01  0.2836951E+06 -0.2236647E+01  0.1062647E-01  0.3063113E+00  0.3493693E+05 -0.1890821E+01  0.4945011E-01  0.3138815E+01  0.6649528E+03 -0.1332561E+01  0.4606436E-02 -0.2129395E+01
  0.2300000E+01  0.2552098E+06 -0.2447335E+01  0.1242078E-01  0.6661072E+00  0.2686161E+05 -0.2246328E+01  0.1093457E-01 -0.2774789E+01  0.5133340E+03  0.1709688E+01  0.1068115E-02 -0.1570796E+01
  0.2400000E+01  0.2301449E+06 -0.2671579E+01  0.2571707E-01 -0.1470950E+01  0.2075423E+05 -0.2516678E+01  0.3130973E-01 -0.1216499E+00  0.3314094E+03  0.2783245E+01  0.2348862E-02 -0.1999575E+01
  0.2500000E+01  0.2084130E+06 -0.2902403E+01  0.5823663E-02  0.9944209E+00  0.1551320E+05 -0.2769107E+01  0.1778403E-01 -0.5064391E-01  0.2749934E+04 -0.3109294E+01  0.5579295E-02 -0.1394857E+01
  0.2600000E+01  0.1891032E+06 -0.3092853E+01  0.3442404E-02  0.2217844E+01  0.1148163E+05 -0.3030878E+01  0.1071500E-01  0.3116669E+01  0.1365055E+05  0.3080506E+01  0.4421575E-02 -0.3030936E+01
  0.2700000E+01  0.1681778E+06  0.2710047E+01  0.1338606E-02  0.2323947E+01  0.8315365E+04  0.2968731E+01  0.2256587E-02  0.1469193E+01  0.6218584E+04 -0.3150234E+00  0.1006618E-02  0.2449787E+00
  0.2800000E+01  0.1527775E+06  0.2494081E+01  0.8667852E-02 -0.3127509E+01  0.5520555E+04  0.2679143E+01  0.1074317E-02  0.2622035E+00  0.1375387E+04  0.2247114E+01  0.7720400E-03  0.3217501E+00
  0.2900000E+01  0.1387774E+06  0.2213245E+01  0.2516544E-02  0.2896614E+01  0.3081510E+04  0.2306971E+01  0.1401043E-02  0.2526685E+01  0.4609954E+04  0.2199131E+01  0.1091830E-02  0.2677945E+01
  0.3000000E+01  0.1262080E+06  0.1918185E+01  0.1004293E-01  0.3129438E+01  0.1106780E+04  0.1444371E+01  0.1552751E-02 -0.1834247E+01  0.7187992E+04  0.1910159E+01  0.3849089E-02  0.1092965E+01
  0.3100000E+01  0.1143247E+06  0.1611374E+01  0.1880240E-02  0.2517570E+01  0.3288813E+04 -0.9803774E+00  0.6034056E-02  0.1309258E+01  0.9453570E+04  0.1608088E+01  0.3437531E-02  0.1677532E+01
  0.3200000E+01  0.1030082E+06  0.1297331E+01  0.9841612E-03  0.1695152E+01  0.1188308E+05  0.8341706E+00  0.2345153E-02 -0.2590831E+00  0.1151710E+05  0.1282238E+01  0.5459151E-03  0.4636476E+00
  0.3300000E+01  0.9208767E+05  0.9831615E+00  0.2849760E-02 -0.1742988E+01  0.4023152E+04  0.7288392E+00  0.1547733E-02  0.2771149E+00  0.1364757E+05  0.9698036E+00  0.6905341E-03 -0.7853988E+00
  0.3400000E+01  0.8049242E+05  0.6873438E+00  0.1090550E-02  0.2828691E+01  0.2387301E+04  0.3930053E+00  0.1510011E-02 -0.2098462E+01  0.1629344E+05  0.6755334E+00  0.3662109E-03  0.1570797E+01
  0.3500000E+01  0.5904296E+05  0.5438857E+00  0.1615991E-02 -0.2951605E+01  0.1263943E+04  0.1626118E+00  0.7153601E-03 -0.1717972E+01  0.2205947E+05  0.5370221E+00  0.1234360E-02  0.2992702E+01
  0.3600000E+01  0.8273002E+05 -0.9420759E+00  0.4442169E-02 -0.1349147E+01  0.2580104E+03 -0.1131329E+00  0.1285146E-02  0.6054977E+00  0.3686265E+04  0.2167975E+01  0.5261783E-02  0.1640451E+01
  0.3700000E+01  0.7361402E+05 -0.8087141E+00  0.1339996E-02 -0.5247956E+00  0.7205524E+03  0.2858019E+01  0.1838652E-02  0.2454093E+01  0.1041407E+05 -0.7611399E+00  0.1726335E-02 -0.1712693E+01
  0.3800000E+01  0.6457378E+05 -0.1098072E+01  0.2666056E-02 -0.2863294E+01  0.1913297E+04  0.2589273E+01  0.1153083E-03 -0.1471385E+01  0.1271040E+05 -0.1062403E+01  0.3016304E-02 -0.1098099E+01
  0.3900000E+01  0.5667000E+05 -0.1436641E+01  0.4340557E-02  0.2341901E+01  0.4425804E+04  0.2480496E+01  0.6450113E-03  0.1837113E+01  0.1382299E+05 -0.1427716E+01  0.1337561E-02  0.9638090E+00
  0.4000000E+01  0.4847812E+05 -0.1788990E+01  0.1900929E-02 -0.3045119E+01  0.5966129E+04 -0.2703344E+01  0.5711388E-03 -0.2801096E+01  0.1471210E+05 -0.1796134E+01  0.1695855E-02  0.2098871E+01
  0.4100000E+01  0.3886043E+05 -0.2126909E+01  0.1530754E-02 -0.1490966E+01  0.2328402E+04 -0.2626503E+01  0.4752277E-03 -0.5430436E+00  0.1553539E+05 -0.2131232E+01  0.7425247E-03  0.1651487E+00
  0.4200000E+01  0.2116686E+05 -0.2356268E+01  0.1536826E-02  0.1690225E+01  0.9777849E+03 -0.2872172E+01  0.1353156E-02  0.1435916E+01  0.1622902E+05 -0.2304711E+01  0.1166075E-02  0.1675673E+01
  0.4300000E+01  0.4153191E+05  0.1565106E+01  0.9417282E-03  0.1099903E+01  0.1743749E+01  0.5690795E-01  0.2140608E-02  0.1494148E+01  0.5976663E+04 -0.1580357E+01  0.4443426E-03  0.1849096E+01
  0.4400000E+01  0.5194533E+05  0.2118048E+01  0.5866065E-10  0.2089942E+01  0.1031308E+04 -0.2417270E+00  0.4381385E-03 -0.2860378E+01  0.9514166E+04  0.2183217E+01  0.8188725E-03  0.1107149E+01
  0.4500000E+01  0.4380366E+05  0.1929356E+01  0.7199578E-03  0.1703751E+00  0.2363134E+04 -0.4263211E+00  0.6327829E-03  0.1401188E+01  0.1188750E+05  0.1972663E+01  0.1730915E-02 -0.1730148E+01
  0.4600000E+01  0.3625685E+05  0.1654819E+01  0.1891601E-02  0.2726440E+01  0.5003457E+04 -0.2545213E+00  0.6084170E-03 -0.1845204E+01  0.1270126E+05  0.1658148E+01  0.5629231E-03  0.2568627E+01
  0.4700000E+01  0.2712704E+05  0.1412432E+01  0.5115680E-03  0.3028845E+00  0.3637080E+04  0.4001828E+00  0.1341872E-02  0.2861896E+01  0.1266964E+05  0.1375070E+01  0.2911831E-02 -0.2147172E+01
  0.4800000E+01  0.1284123E+05  0.1440561E+01  0.1023591E-02  0.2034444E+01  0.1618542E+04  0.3260531E+00  0.5331404E-03  0.6503992E+00  0.1154997E+05  0.1211889E+01  0.2374104E-02  0.1257176E+01
  0.4900000E+01  0.1933352E+05 -0.1946138E+01  0.1678558E-02  0.2879526E+01  0.4951311E+03  0.5416508E-01  0.4045680E-03 -0.4529736E+00  0.5832825E+04  0.1597557E+01  0.3000749E-02  0.2566283E+01
  0.5000000E+01  0.3035633E+05 -0.1241530E+01  0.2047181E-03  0.2677945E+01  0.5159036E+03  0.2950015E+01  0.4446305E-03 -0.1667234E+01  0.4044563E+04 -0.1154882E+01  0.5460856E-02 -0.1132144E+01
