VARIABLES="Period (s)" "|Fx| (N/m)" "|Fy| (N/m)" "|Fz| (N/m)" "|Cx| (N)" "|Cy| (N)" "|Cz| (N)" "ang(Fx) (°)" "ang(Fy) (°)" "ang(Fz) (°)" "ang(Cx) (°)" "ang(Cy) (°)" "ang(Cz) (°)"
Zone t="Corps  1"
Zone t="Diffraction force - beta =   0.000 deg",I=    50,F=POINT
 0.1000  0.239280E+05  0.247160E-01  0.916507E+06  0.166885E+00  0.164259E+05  0.978946E-03    0.00  -89.82  -89.97   89.95    0.00  -91.79
 0.2000  0.489044E+05  0.173938E-01  0.895257E+06  0.147026E-01  0.330849E+05  0.100216E-02   -0.01  -90.53  -89.88  -90.57   -0.01  -99.64
 0.3000  0.762869E+05  0.307861E-02  0.860487E+06  0.334879E+00  0.502844E+05  0.305557E-03   -0.02  -89.43  -89.70  -89.80   -0.02 -177.14
 0.4000  0.107894E+06  0.371869E-01  0.812771E+06  0.207217E-01  0.683870E+05  0.507226E-03   -0.05 -266.68  -89.34 -269.73   -0.05  -96.91
 0.5000  0.145935E+06  0.385563E-01  0.753385E+06  0.121881E+00  0.879104E+05  0.916036E-03   -0.13  -92.18  -88.69  -91.14   -0.13   -1.91
 0.6000  0.193048E+06  0.150415E-01  0.685437E+06  0.146369E-01  0.109308E+06  0.863167E-03   -0.33 -111.05  -87.54   57.39   -0.33   45.00
 0.7000  0.251543E+06  0.356600E-01  0.613744E+06  0.769170E-01  0.131767E+06  0.562716E-03   -0.75   89.80  -85.73 -100.15   -0.75 -257.47
 0.8000  0.318677E+06  0.833554E-01  0.542705E+06  0.283299E+00  0.153181E+06  0.293032E-02   -1.55 -265.00  -83.24  -84.47   -1.55 -178.81
 0.9000  0.392078E+06  0.414711E-01  0.474512E+06  0.132900E+00  0.169914E+06  0.734960E-03   -2.87   80.68  -80.10 -259.08   -2.87  -48.37
 1.0000  0.463441E+06  0.397809E-01  0.409969E+06  0.636738E-01  0.178643E+06  0.341797E-02   -4.78 -227.30  -76.32 -268.79   -4.77    0.00
 1.1000  0.526293E+06  0.324181E-01  0.350611E+06  0.287356E+00  0.178379E+06  0.415084E-02   -7.18 -146.71  -71.89  -86.45   -7.16  -19.77
 1.2000  0.570956E+06  0.651311E-01  0.296724E+06  0.212421E+00  0.167081E+06  0.346183E-02   -9.74  -88.07  -66.76 -254.03   -9.75 -170.87
 1.3000  0.590751E+06  0.186976E-01  0.247806E+06  0.224573E+00  0.145519E+06  0.147624E-02  -11.88  -26.57  -60.88  -84.42  -11.86    7.13
 1.4000  0.584455E+06  0.197453E-01  0.205604E+06  0.109771E+00  0.119607E+06  0.244141E-02  -12.90   16.61  -54.31  -78.68  -12.95 -180.00
 1.5000  0.558224E+06  0.370437E-01  0.168506E+06  0.868611E-01  0.908956E+05  0.462097E-02  -12.31 -202.68  -46.87 -209.60  -12.22   77.80
 1.6000  0.519470E+06  0.133146E-01  0.137102E+06  0.806238E-01  0.664210E+05  0.293984E-02   -9.86   -2.10  -38.75 -261.23  -10.06   48.37
 1.7000  0.475737E+06  0.317806E-01  0.110476E+06  0.882983E-01  0.451323E+05  0.532967E-03   -5.56 -237.47  -29.70 -110.73   -5.59  -23.63
 1.8000  0.431230E+06  0.606932E-02  0.882269E+05  0.118501E+00  0.285027E+05  0.734961E-02    0.46 -237.11  -19.84  -96.31    0.34 -184.76
 1.9000  0.389107E+06  0.225721E-01  0.699208E+05  0.223806E-02  0.172394E+05  0.734048E-02    8.02   38.85   -8.88  -30.02    5.40 -183.81
 2.0000  0.350163E+06  0.927172E-02  0.547161E+05  0.394430E-01  0.839680E+04  0.154408E-02   16.90  -99.09    3.00 -103.26   18.68 -198.43
 2.1000  0.315054E+06  0.111452E-01  0.417878E+05  0.536690E-01  0.325892E+04  0.100662E-02   27.00 -241.19   16.78   74.06   22.32   75.96
 2.2000  0.283695E+06  0.106265E-01  0.349369E+05  0.494501E-01  0.664953E+03  0.460644E-02   38.15 -107.55   18.34 -269.84  -13.65   32.01
 2.3000  0.255210E+06  0.124208E-01  0.268616E+05  0.109346E-01  0.513334E+03  0.106812E-02   50.22 -128.17   38.71   68.98 -187.96    0.00
 2.4000  0.230145E+06  0.257171E-01  0.207542E+05  0.313097E-01  0.331409E+03  0.234886E-02   63.07   -5.72   54.20  -83.03 -249.47   24.57
 2.5000  0.208413E+06  0.582366E-02  0.155132E+05  0.177840E-01  0.274993E+04  0.557929E-02   76.30 -146.98   68.66  -87.10   88.15  -10.08
 2.6000  0.189103E+06  0.344240E-02  0.114816E+05  0.107150E-01  0.136505E+05  0.442157E-02   87.21 -217.07   83.66 -268.57 -266.50   83.66
 2.7000  0.168178E+06  0.133861E-02  0.831537E+04  0.225659E-02  0.621858E+04  0.100662E-02 -245.27 -223.15 -260.10 -174.18  -71.95 -104.04
 2.8000  0.152777E+06  0.866785E-02  0.552055E+04  0.107432E-02  0.137539E+04  0.772040E-03 -232.90   89.19 -243.50 -105.02 -218.75 -108.43
 2.9000  0.138777E+06  0.251654E-02  0.308151E+04  0.140104E-02  0.460995E+04  0.109183E-02 -216.81 -255.96 -222.18 -234.77 -216.00 -243.43
 3.0000  0.126208E+06  0.100429E-01  0.110678E+04  0.155275E-02  0.718799E+04  0.384909E-02 -199.90 -269.30 -172.76   15.09 -199.44 -152.62
 3.1000  0.114325E+06  0.188024E-02  0.328881E+04  0.603406E-02  0.945357E+04  0.343753E-02 -182.32 -234.25  -33.83 -165.01 -182.14 -186.12
 3.2000  0.103008E+06  0.984161E-03  0.118831E+05  0.234515E-02  0.115171E+05  0.545915E-03 -164.33 -187.13 -137.79  -75.16 -163.47 -116.57
 3.3000  0.920877E+05  0.284976E-02  0.402315E+04  0.154773E-02  0.136476E+05  0.690534E-03 -146.33    9.87 -131.76 -105.88 -145.57  -45.00
 3.4000  0.804924E+05  0.109055E-02  0.238730E+04  0.151001E-02  0.162934E+05  0.366211E-03 -129.38 -252.07 -112.52   30.23 -128.71 -180.00
 3.5000  0.590430E+05  0.161599E-02  0.126394E+04  0.715360E-03  0.220595E+05  0.123436E-02 -121.16   79.11  -99.32    8.43 -120.77 -261.47
 3.6000  0.827300E+05  0.444217E-02  0.258010E+03  0.128515E-02  0.368627E+04  0.526178E-02  -36.02  -12.70  -83.52 -124.69 -214.22 -183.99
 3.7000  0.736140E+05  0.134000E-02  0.720552E+03  0.183865E-02  0.104141E+05  0.172633E-02  -43.66  -59.93 -253.75 -230.61  -46.39    8.13
 3.8000  0.645738E+05  0.266606E-02  0.191330E+04  0.115308E-03  0.127104E+05  0.301630E-02  -27.09   74.05 -238.35   -5.70  -29.13  -27.08
 3.9000  0.566700E+05  0.434056E-02  0.442580E+04  0.645011E-03  0.138230E+05  0.133756E-02   -7.69 -224.18 -232.12 -195.26   -8.20 -145.22
 4.0000  0.484781E+05  0.190093E-02  0.596613E+04  0.571139E-03  0.147121E+05  0.169585E-02   12.50   84.47   64.89   70.49   12.91 -210.26
 4.1000  0.388604E+05  0.153075E-02  0.232840E+04  0.475228E-03  0.155354E+05  0.742525E-03   31.86   -4.57   60.49  -58.89   32.11  -99.46
 4.2000  0.211669E+05  0.153683E-02  0.977785E+03  0.135316E-02  0.162290E+05  0.116607E-02   45.00 -186.84   74.56 -172.27   42.05 -186.01
 4.3000  0.415319E+05  0.941728E-03  0.174375E+01  0.214061E-02  0.597666E+04  0.444343E-03 -179.67 -153.02  -93.26 -175.61    0.55 -195.95
 4.4000  0.519453E+05  0.586606E-10  0.103131E+04  0.438139E-03  0.951417E+04  0.818873E-03 -211.36 -209.74  -76.15   73.89 -215.09 -153.43
 4.5000  0.438037E+05  0.719958E-03  0.236313E+04  0.632783E-03  0.118875E+05  0.173091E-02 -200.54  -99.76  -65.57 -170.28 -203.03    9.13
 4.6000  0.362569E+05  0.189160E-02  0.500346E+04  0.608417E-03  0.127013E+05  0.562923E-03 -184.81 -246.21  -75.42   15.72 -185.00 -237.17
 4.7000  0.271270E+05  0.511568E-03  0.363708E+04  0.134187E-02  0.126696E+05  0.291183E-02 -170.93 -107.35 -112.93 -253.97 -168.79   33.02
 4.8000  0.128412E+05  0.102359E-02  0.161854E+04  0.533140E-03  0.115500E+05  0.237410E-02 -172.54 -206.57 -108.68 -127.27 -159.44 -162.03
 4.9000  0.193335E+05  0.167856E-02  0.495131E+03  0.404568E-03  0.583282E+04  0.300075E-02   21.51 -254.98  -93.10  -64.05 -181.53 -237.04
 5.0000  0.303563E+05  0.204718E-03  0.515904E+03  0.444630E-03  0.404456E+04  0.546086E-02  -18.87 -243.43 -259.02    5.53  -23.83  -25.13
