VARIABLES="w (rad/s)"
"abs(F   1   1)" "angle(F   1   1)"
"abs(F   1   2)" "angle(F   1   2)"
"abs(F   1   3)" "angle(F   1   3)"
"abs(F   1   4)" "angle(F   1   4)"
"abs(F   1   5)" "angle(F   1   5)"
"abs(F   1   6)" "angle(F   1   6)"
Zone t="FKforce - beta =   0.000",I=    50,F=POINT
  0.1000000E+00  0.1574587E+05 -0.1570796E+01  0.2465843E-01 -0.4331656E-02  0.9203585E+06 -0.8621174E-09  0.1647950E+00 -0.3140389E+01  0.1665692E+05 -0.1570796E+01  0.9770392E-03  0.3123983E-01
  0.2000000E+00  0.3213699E+05 -0.1570796E+01  0.1806981E-01  0.1942323E-01  0.9099757E+06 -0.2045738E-08  0.9765816E-02  0.6249919E-02  0.3376775E+05 -0.1570793E+01  0.9996545E-03  0.2153577E+00
  0.3000000E+00  0.4994192E+05 -0.1570795E+01  0.1715783E-02 -0.8904959E-01  0.8927271E+06 -0.6836933E-10  0.3312989E+00  0.4605748E-03  0.5188195E+05 -0.1570796E+01  0.1831055E-03 -0.1570796E+01
  0.4000000E+00  0.7018193E+05 -0.1570797E+01  0.3857433E-01 -0.3139219E+01  0.8687255E+06 -0.2037490E-08  0.1611470E-01 -0.3128336E+01  0.7173779E+05 -0.1570796E+01  0.4882812E-03  0.0000000E+00
  0.5000000E+00  0.9419975E+05 -0.1570796E+01  0.3784578E-01 -0.1451511E-01  0.8381924E+06 -0.1237899E-08  0.1201186E+00 -0.4827198E-02  0.9428224E+05 -0.1570794E+01  0.7324219E-03 -0.1570796E+01
  0.6000000E+00  0.1234014E+06 -0.1570796E+01  0.1859480E-01  0.6569480E-01  0.8015243E+06  0.7614885E-10  0.9293843E-02 -0.3310961E+00  0.1203711E+06 -0.1570796E+01  0.1202253E-02 -0.1989021E+01
  0.7000000E+00  0.1583487E+06 -0.1570796E+01  0.3616007E-01  0.3102761E+01  0.7593228E+06 -0.8038104E-08  0.1103583E+00  0.1106150E-01  0.1499095E+06 -0.1570796E+01  0.1660336E-02  0.1869295E+01
  0.8000000E+00  0.1979396E+06 -0.1570796E+01  0.7690548E-01  0.3136037E+01  0.7123042E+06 -0.1062518E-07  0.3166544E+00  0.5011523E-02  0.1812254E+06 -0.1570797E+01  0.1220703E-02  0.1570796E+01
  0.9000000E+00  0.2400228E+06 -0.1570796E+01  0.3923379E-01 -0.3048116E+01  0.6612185E+06 -0.1310761E-07  0.1560089E+00 -0.3135333E+01  0.2118718E+06 -0.1570797E+01  0.2013235E-02 -0.1325818E+01
  0.1000000E+01  0.2824641E+06 -0.1570796E+01  0.2567658E-01 -0.3084512E+01  0.6068737E+06 -0.3218338E-08  0.5106046E-01 -0.3104528E+01  0.2397507E+06 -0.1570796E+01  0.2013235E-02 -0.1325818E+01
  0.1100000E+01  0.3233770E+06 -0.1570796E+01  0.1757855E-01 -0.6944333E-02  0.5501879E+06 -0.9318549E-08  0.3376479E+00  0.2892255E-02  0.2633665E+06 -0.1570796E+01  0.2013235E-02 -0.1325818E+01
  0.1200000E+01  0.3609738E+06 -0.1570796E+01  0.7304743E-01 -0.3677271E-01  0.4921691E+06 -0.4960503E-09  0.1392841E+00 -0.3136334E+01  0.2816923E+06 -0.1570796E+01  0.3936649E-02  0.1446441E+01
  0.1300000E+01  0.3934873E+06 -0.1570796E+01  0.4648299E-02  0.5224034E+00  0.4338862E+06  0.5626835E-09  0.1610109E+00 -0.1516299E-02  0.2940858E+06 -0.1570796E+01  0.4882812E-03  0.0000000E+00
  0.1400000E+01  0.4192044E+06 -0.1570796E+01  0.9475204E-02 -0.2880990E+01  0.3764274E+06  0.5837157E-08  0.1198272E+00  0.3566275E-01  0.3002665E+06 -0.1570796E+01  0.3974321E-02  0.1756144E+01
  0.1500000E+01  0.4365434E+06 -0.1570796E+01  0.9063053E-02  0.2924385E+01  0.3208552E+06  0.4565435E-08  0.2067327E-01  0.2993433E+01  0.3002998E+06 -0.1570796E+01  0.8802615E-03  0.2553590E+01
  0.1600000E+01  0.4441493E+06 -0.1570796E+01  0.2548903E-02  0.1862253E+01  0.2681640E+06 -0.2093955E-07  0.5896110E-01 -0.3135381E+01  0.2945541E+06 -0.1570796E+01  0.2677211E-02 -0.2323948E+01
  0.1700000E+01  0.4409995E+06 -0.1570796E+01  0.2560285E-01  0.3093896E+01  0.2192353E+06 -0.7795207E-08  0.6361409E-01  0.1095977E+00  0.2836454E+06 -0.1570796E+01  0.7019043E-03  0.0000000E+00
  0.1800000E+01  0.4265039E+06 -0.1570796E+01  0.9665982E-02 -0.2156172E+01  0.1747959E+06  0.2444257E-07  0.6998242E-01  0.2442262E-01  0.2683567E+06 -0.1570796E+01  0.8344647E-02  0.1673376E+01
  0.1900000E+01  0.4005978E+06 -0.1570796E+01  0.1356959E-01  0.3087591E+01  0.1353861E+06  0.1027877E-06  0.5189264E-01 -0.1646728E-01  0.2495582E+06 -0.1570796E+01  0.3173828E-02  0.1176005E+01
  0.2000000E+01  0.3638093E+06 -0.1570796E+01  0.6752596E-02 -0.7086263E+00  0.1013317E+06 -0.2891185E-07  0.1164262E-01 -0.5242416E-02  0.2281185E+06 -0.1570796E+01  0.4882812E-03  0.1570796E+01
  0.2100000E+01  0.3173093E+06 -0.1570796E+01  0.8398047E-02  0.2573749E+01  0.7274044E+05 -0.1678163E-08  0.5401330E-01  0.3120121E+01  0.2048518E+06 -0.1570796E+01  0.4882812E-03 -0.1570796E+01
  0.2200000E+01  0.2629063E+06 -0.1570796E+01  0.5250443E-02 -0.2325162E-01  0.4950095E+05 -0.2219418E-07  0.4059348E-01 -0.3011923E+01  0.1804682E+06 -0.1570796E+01  0.2640785E-02 -0.2158799E+01
  0.2300000E+01  0.2030055E+06 -0.1570796E+01  0.7110530E-02  0.2074962E+00  0.3130515E+05  0.8188675E-07  0.1390705E-01 -0.3013972E+01  0.1555671E+06 -0.1570796E+01  0.1220703E-02 -0.1570796E+01
  0.2400000E+01  0.1405072E+06 -0.1570796E+01  0.2568014E-02 -0.7769950E+00  0.1767961E+05 -0.2692788E-06  0.7765150E-02 -0.3615305E+00  0.1306536E+06 -0.1570796E+01  0.1091830E-02 -0.2034444E+01
  0.2500000E+01  0.7865259E+05 -0.1570796E+01  0.2150136E-02  0.1684588E+01  0.8028567E+04 -0.3154933E-06  0.6760953E-02  0.7002109E-01  0.1061790E+06 -0.1570796E+01  0.3051758E-02 -0.1570796E+01
  0.2600000E+01  0.2081461E+05 -0.1570797E+01  0.2818212E-02 -0.8673834E-01  0.1682847E+04  0.3808245E-06  0.1607185E-01  0.3118330E+01  0.8259147E+05 -0.1570796E+01  0.6905340E-03  0.2356194E+01
  0.2700000E+01  0.2975534E+05  0.1570796E+01  0.2078783E-02  0.8685394E+00  0.2050011E+04 -0.3141593E+01  0.3121124E-03 -0.2551895E+01  0.6038164E+05 -0.1570796E+01  0.5459150E-03  0.2677945E+01
  0.2800000E+01  0.7020557E+05  0.1570796E+01  0.7934570E-02  0.3141593E+01  0.3838671E+04  0.3141592E+01  0.8763598E-03  0.2238625E+00  0.4010760E+05 -0.1570796E+01  0.1423572E-02  0.2111216E+01
  0.2900000E+01  0.9836877E+05  0.1570796E+01  0.1098633E-02  0.3141593E+01  0.4288863E+04  0.3141593E+01  0.2604072E-03 -0.1015303E+01  0.2238446E+05 -0.1570796E+01  0.3662109E-03  0.3141593E+01
  0.3000000E+01  0.1130171E+06  0.1570796E+01  0.4174116E-02  0.3053746E+01  0.3914755E+04 -0.3141593E+01  0.3089669E-03 -0.3529904E+00  0.7834114E+04 -0.1570796E+01  0.2441454E-02  0.1564546E+01
  0.3100000E+01  0.1140560E+06  0.1570796E+01  0.1419642E-02  0.2697173E+01  0.3122846E+04  0.3141593E+01  0.4137672E-03 -0.3188351E+00  0.3003481E+04  0.1570798E+01  0.3472037E-02  0.1747505E+01
  0.3200000E+01  0.1026200E+06  0.1570796E+01  0.2688320E-02 -0.3096169E+01  0.2208220E+04  0.3141593E+01  0.3672439E-03 -0.2077623E-01  0.9783251E+04  0.1570796E+01  0.2441406E-03 -0.1570796E+01
  0.3300000E+01  0.8103982E+05  0.1570796E+01  0.2370177E-02  0.2934096E+01  0.1361755E+04  0.3141593E+01  0.1213134E-02 -0.4088986E-01  0.1246817E+05  0.1570796E+01  0.1006618E-02 -0.1815775E+01
  0.3400000E+01  0.5265957E+05  0.1570796E+01  0.4401308E-03  0.2553590E+01  0.6855516E+03  0.3141592E+01  0.7843912E-03  0.3063702E+01  0.1141415E+05  0.1570796E+01  0.5459150E-03  0.1107149E+01
  0.3500000E+01  0.2150338E+05  0.1570796E+01  0.3712624E-03 -0.1651487E+00  0.2133403E+03  0.3141592E+01  0.1659503E-03 -0.1149375E-01  0.7396974E+04  0.1570796E+01  0.7720405E-03  0.2819842E+01
  0.3600000E+01  0.8188377E+04 -0.1570795E+01  0.1222228E-02 -0.4995840E-01  0.6761832E+02  0.1466794E-05  0.5949468E-03 -0.1951950E+00  0.1560347E+04  0.1570795E+01  0.3784180E-02  0.1570796E+01
  0.3700000E+01  0.3250486E+05 -0.1570796E+01  0.8738905E-03  0.2110933E+00  0.1961153E+03  0.3185150E-06  0.9430852E-03 -0.2916727E+01  0.4721535E+04 -0.1570796E+01  0.1953125E-02 -0.1570796E+01
  0.3800000E+01  0.4841745E+05 -0.1570796E+01  0.3122353E-02 -0.3063322E+01  0.2202208E+03  0.3756740E-06  0.1922927E-03 -0.2455427E+01  0.1005297E+05 -0.1570796E+01  0.2357569E-02 -0.1199905E+01
  0.3900000E+01  0.5425046E+05 -0.1570796E+01  0.3040532E-03  0.2728464E+01  0.1853675E+03  0.2315150E-06  0.9596755E-04 -0.2045555E+01  0.1326342E+05 -0.1570796E+01  0.9884116E-03  0.1415800E+01
  0.4000000E+01  0.4997222E+05 -0.1570796E+01  0.5627163E-03  0.2922924E+01  0.1274336E+03 -0.1421903E-06  0.6901628E-03 -0.2280185E-01  0.1364025E+05 -0.1570796E+01  0.1987161E-02  0.1756144E+01
  0.4100000E+01  0.3722871E+05 -0.1570796E+01  0.2441406E-03  0.0000000E+00  0.7021117E+02  0.5433177E-07  0.1664165E-03 -0.2270487E+01  0.1109093E+05 -0.1570796E+01  0.2441406E-03  0.0000000E+00
  0.4200000E+01  0.1907680E+05 -0.1570796E+01  0.3356934E-03  0.1570796E+01  0.2609856E+02 -0.3836833E-06  0.2055399E-03 -0.3020662E+01  0.6183925E+04 -0.1570796E+01  0.8301679E-03  0.9420000E+00
  0.4300000E+01  0.5682970E+03  0.1570798E+01  0.5323109E-03  0.1094329E+01  0.1307881E+01 -0.3141582E+01  0.1941992E-03  0.5020902E+00  0.4154016E+02 -0.1570819E+01  0.3051758E-03 -0.1570796E+01
  0.4400000E+01  0.1769244E+05  0.1570797E+01  0.3112195E-03  0.2944197E+01  0.1395162E+02 -0.3141592E+01  0.5816600E-03 -0.2920923E+01  0.5908514E+04  0.1570797E+01  0.4401308E-03  0.9827937E+00
  0.4500000E+01  0.2900559E+05  0.1570797E+01  0.2516544E-03  0.2449787E+00  0.1630053E+02 -0.3141592E+01  0.4807473E-03  0.2480832E+01  0.1027585E+05  0.1570796E+01  0.6103516E-03 -0.9272952E+00
  0.4600000E+01  0.3264867E+05  0.1570797E+01  0.1122228E-02 -0.3087178E+01  0.1311168E+02 -0.3141592E+01  0.1938128E-03 -0.1535730E+01  0.1206426E+05  0.1570797E+01  0.5678648E-03  0.2106608E+01
  0.4700000E+01  0.2860586E+05  0.1570797E+01  0.5250443E-03 -0.9505469E+00  0.8140980E+01  0.3141592E+01  0.1318786E-03  0.2352040E+01  0.1094722E+05  0.1570797E+01  0.7720405E-03 -0.1892547E+01
  0.4800000E+01  0.1869021E+05  0.1570796E+01  0.5526969E-03 -0.3030936E+01  0.3688098E+01  0.3141592E+01  0.4718076E-03  0.7590873E+00  0.7375352E+04  0.1570797E+01  0.1464844E-02  0.1570796E+01
  0.4900000E+01  0.6069145E+04  0.1570797E+01  0.9125023E-03  0.2397591E+01  0.7186951E+00 -0.3141591E+01  0.2001964E-03  0.3927528E+00  0.2468592E+04  0.1570796E+01  0.3204346E-03 -0.1570796E+01
  0.5000000E+01  0.5581376E+04 -0.1570795E+01  0.4239637E-03  0.2613518E+01  0.7251279E+00  0.4109940E-06  0.2314892E-03 -0.1767303E+01  0.2294749E+04 -0.1570796E+01  0.3115186E-02 -0.1531601E+01
