 VARIABLES="Time (s)"
"AddedMass    1" "IRF    1"
"AddedMass    2" "IRF    2"
"AddedMass    3" "IRF    3"
"AddedMass    4" "IRF    4"
"AddedMass    5" "IRF    5"
"AddedMass    6" "IRF    6"
Zone t="DoF    1",I=   100,F=POINT
  0.0000000E+00  0.8701205E+05  0.3318855E+06 -0.1583212E-04 -0.1737665E-03  0.5148580E-02  0.2461038E-01  0.7221717E-04 -0.2057299E-03 -0.1985047E+05  0.3903560E+05 -0.8529204E-04  0.7839148E-03
  0.1000000E+00  0.8701205E+05  0.3222248E+06 -0.1583212E-04 -0.1677930E-03  0.5148580E-02  0.2419959E-01  0.7221717E-04 -0.2012309E-03 -0.1985047E+05  0.3766915E+05 -0.8529204E-04  0.7719024E-03
  0.2000000E+00  0.8701205E+05  0.2941366E+06 -0.1583212E-04 -0.1502774E-03  0.5148580E-02  0.2298908E-01  0.7221717E-04 -0.1883163E-03 -0.1985047E+05  0.3375875E+05 -0.8529204E-04  0.7360678E-03
  0.3000000E+00  0.8701205E+05  0.2501885E+06 -0.1583212E-04 -0.1223873E-03  0.5148580E-02  0.2104255E-01  0.7221717E-04 -0.1686170E-03 -0.1985047E+05  0.2783910E+05 -0.8529204E-04  0.6770602E-03
  0.4000000E+00  0.8701205E+05  0.1942994E+06 -0.1583212E-04 -0.8591881E-04  0.5148580E-02  0.1846015E-01  0.7221717E-04 -0.1444883E-03 -0.1985047E+05  0.2070013E+05 -0.8529204E-04  0.5960903E-03
  0.5000000E+00  0.8701205E+05  0.1312555E+06 -0.1583212E-04 -0.4309444E-04  0.5148580E-02  0.1537015E-01  0.7221717E-04 -0.1185460E-03 -0.1985047E+05  0.1325464E+05 -0.8529204E-04  0.4950861E-03
  0.6000000E+00  0.8701205E+05  0.6614007E+05 -0.1583212E-04  0.3677430E-05  0.5148580E-02  0.1191905E-01  0.7221717E-04 -0.9315863E-04 -0.1985047E+05  0.6388249E+04 -0.8529204E-04  0.3768464E-03
  0.7000000E+00  0.8701205E+05  0.3757819E+04 -0.1583212E-04  0.5204474E-04  0.5148580E-02  0.8261033E-02  0.7221717E-04 -0.7000372E-04 -0.1985047E+05  0.8185964E+03 -0.8529204E-04  0.2451431E-03
  0.8000000E+00  0.8701205E+05 -0.5186239E+05 -0.1583212E-04  0.9991717E-04  0.5148580E-02  0.4548138E-02  0.7221717E-04 -0.4977791E-04 -0.1985047E+05 -0.3011542E+04 -0.8529204E-04  0.1047247E-03
  0.9000000E+00  0.8701205E+05 -0.9782327E+05 -0.1583212E-04  0.1455998E-03  0.5148580E-02  0.9220436E-03  0.7221717E-04 -0.3212312E-04 -0.1985047E+05 -0.4989093E+04 -0.8529204E-04 -0.3880241E-04
  0.1000000E+01  0.8701205E+05 -0.1325336E+06 -0.1583212E-04  0.1878319E-03  0.5148580E-02 -0.2491939E-02  0.7221717E-04 -0.1578148E-04 -0.1985047E+05 -0.5325686E+04 -0.8529204E-04 -0.1792299E-03
  0.1100000E+01  0.8701205E+05 -0.1556926E+06 -0.1583212E-04  0.2257226E-03  0.5148580E-02 -0.5588464E-02  0.7221717E-04  0.1052684E-05 -0.1985047E+05 -0.4496094E+04 -0.8529204E-04 -0.3101234E-03
  0.1200000E+01  0.8701205E+05 -0.1681071E+06 -0.1583212E-04  0.2585966E-03  0.5148580E-02 -0.8283545E-02  0.7221717E-04  0.2025882E-04 -0.1985047E+05 -0.3133764E+04 -0.8529204E-04 -0.4252821E-03
  0.1300000E+01  0.8701205E+05 -0.1713867E+06 -0.1583212E-04  0.2857826E-03  0.5148580E-02 -0.1051428E-01  0.7221717E-04  0.4329239E-04 -0.1985047E+05 -0.1904389E+04 -0.8529204E-04 -0.5192319E-03
  0.1400000E+01  0.8701205E+05 -0.1675787E+06 -0.1583212E-04  0.3063934E-03  0.5148580E-02 -0.1223754E-01  0.7221717E-04  0.7076712E-04 -0.1985047E+05 -0.1381708E+04 -0.8529204E-04 -0.5876915E-03
  0.1500000E+01  0.8701205E+05 -0.1588080E+06 -0.1583212E-04  0.3191570E-03  0.5148580E-02 -0.1342825E-01  0.7221717E-04  0.1022033E-03 -0.1985047E+05 -0.1948069E+04 -0.8529204E-04 -0.6279529E-03
  0.1600000E+01  0.8701205E+05 -0.1469774E+06 -0.1583212E-04  0.3223524E-03  0.5148580E-02 -0.1407782E-01  0.7221717E-04  0.1359937E-03 -0.1985047E+05 -0.3736555E+04 -0.8529204E-04 -0.6391293E-03
  0.1700000E+01  0.8701205E+05 -0.1335670E+06 -0.1583212E-04  0.3138917E-03  0.5148580E-02 -0.1419297E-01  0.7221717E-04  0.1695948E-03 -0.1985047E+05 -0.6622733E+04 -0.8529204E-04 -0.6222381E-03
  0.1800000E+01  0.8701205E+05 -0.1195518E+06 -0.1583212E-04  0.2915580E-03  0.5148580E-02 -0.1379507E-01  0.7221717E-04  0.1999039E-03 -0.1985047E+05 -0.1026425E+05 -0.8529204E-04 -0.5801140E-03
  0.1900000E+01  0.8701205E+05 -0.1054279E+06 -0.1583212E-04  0.2533844E-03  0.5148580E-02 -0.1291963E-01  0.7221717E-04  0.2237503E-03 -0.1985047E+05 -0.1417761E+05 -0.8529204E-04 -0.5171569E-03
  0.2000000E+01  0.8701205E+05 -0.9132518E+05 -0.1583212E-04  0.1981139E-03  0.5148580E-02 -0.1161578E-01  0.7221717E-04  0.2384010E-03 -0.1985047E+05 -0.1783509E+05 -0.8529204E-04 -0.4389469E-03
  0.2100000E+01  0.8701205E+05 -0.7716610E+05 -0.1583212E-04  0.1256597E-03  0.5148580E-02 -0.9945309E-02  0.7221717E-04  0.2419896E-03 -0.1985047E+05 -0.2076179E+05 -0.8529204E-04 -0.3517713E-03
  0.2200000E+01  0.8701205E+05 -0.6283070E+05 -0.1583212E-04  0.3747260E-04  0.5148580E-02 -0.7981099E-02  0.7221717E-04  0.2337886E-03 -0.1985047E+05 -0.2261482E+05 -0.8529204E-04 -0.2621046E-03
  0.2300000E+01  0.8701205E+05 -0.4829066E+05 -0.1583212E-04 -0.6328303E-04  0.5148580E-02 -0.5804651E-02  0.7221717E-04  0.2142840E-03 -0.1985047E+05 -0.2323071E+05 -0.8529204E-04 -0.1760954E-03
  0.2400000E+01  0.8701205E+05 -0.3368777E+05 -0.1583212E-04 -0.1718010E-03  0.5148580E-02 -0.3503040E-02  0.7221717E-04  0.1850466E-03 -0.1985047E+05 -0.2263498E+05 -0.8529204E-04 -0.9910095E-04
  0.2500000E+01  0.8701205E+05 -0.1934712E+05 -0.1583212E-04 -0.2819828E-03  0.5148580E-02 -0.1165452E-02  0.7221717E-04  0.1484421E-03 -0.1985047E+05 -0.2101545E+05 -0.8529204E-04 -0.3530425E-04
  0.2600000E+01  0.8701205E+05 -0.5730532E+04 -0.1583212E-04 -0.3870368E-03  0.5148580E-02  0.1120401E-02  0.7221717E-04  0.1072407E-03 -0.1985047E+05 -0.1866815E+05 -0.8529204E-04  0.1256282E-04
  0.2700000E+01  0.8701205E+05  0.6650273E+04 -0.1583212E-04 -0.4802387E-03  0.5148580E-02  0.3271462E-02  0.7221717E-04  0.6421274E-04 -0.1985047E+05 -0.1592919E+05 -0.8529204E-04  0.4337502E-04
  0.2800000E+01  0.8701205E+05  0.1733630E+05 -0.1583212E-04 -0.5557453E-03  0.5148580E-02  0.5211951E-02  0.7221717E-04  0.2178353E-04 -0.1985047E+05 -0.1310791E+05 -0.8529204E-04  0.5764185E-04
  0.2900000E+01  0.8701205E+05  0.2601208E+05 -0.1583212E-04 -0.6093046E-03  0.5148580E-02  0.6875253E-02  0.7221717E-04 -0.1819189E-04 -0.1985047E+05 -0.1043472E+05 -0.8529204E-04  0.5740953E-04
  0.3000000E+01  0.8701205E+05  0.3256385E+05 -0.1583212E-04 -0.6387431E-03  0.5148580E-02  0.8205129E-02  0.7221717E-04 -0.5450763E-04 -0.1985047E+05 -0.8032985E+04 -0.8529204E-04  0.4604454E-04
  0.3100000E+01  0.8701205E+05  0.3709289E+05 -0.1583212E-04 -0.6441220E-03  0.5148580E-02  0.9156532E-02  0.7221717E-04 -0.8654727E-04 -0.1985047E+05 -0.5918046E+04 -0.8529204E-04  0.2791211E-04
  0.3200000E+01  0.8701205E+05  0.3988311E+05 -0.1583212E-04 -0.6275291E-03  0.5148580E-02  0.9696283E-02  0.7221717E-04 -0.1141189E-03 -0.1985047E+05 -0.4020798E+04 -0.8529204E-04  0.7966781E-05
  0.3300000E+01  0.8701205E+05  0.4133304E+05 -0.1583212E-04 -0.5925311E-03  0.5148580E-02  0.9803974E-02  0.7221717E-04 -0.1372447E-03 -0.1985047E+05 -0.2227582E+04 -0.8529204E-04 -0.8716687E-05
  0.3400000E+01  0.8701205E+05  0.4186948E+05 -0.1583212E-04 -0.5433855E-03  0.5148580E-02  0.9473238E-02  0.7221717E-04 -0.1559631E-03 -0.1985047E+05 -0.4257657E+03 -0.8529204E-04 -0.1744170E-04
  0.3500000E+01  0.8701205E+05  0.4186334E+05 -0.1583212E-04 -0.4841671E-03  0.5148580E-02  0.8713414E-02  0.7221717E-04 -0.1701951E-03 -0.1985047E+05  0.1456375E+04 -0.8529204E-04 -0.1437671E-04
  0.3600000E+01  0.8701205E+05  0.4156628E+05 -0.1583212E-04 -0.4179763E-03  0.5148580E-02  0.7551329E-02  0.7221717E-04 -0.1797051E-03 -0.1985047E+05  0.3424448E+04 -0.8529204E-04  0.3012039E-05
  0.3700000E+01  0.8701205E+05  0.4108075E+05 -0.1583212E-04 -0.3464023E-03  0.5148580E-02  0.6032807E-02  0.7221717E-04 -0.1841584E-03 -0.1985047E+05  0.5412365E+04 -0.8529204E-04  0.3563007E-04
  0.3800000E+01  0.8701205E+05  0.4036810E+05 -0.1583212E-04 -0.2693543E-03  0.5148580E-02  0.4223223E-02  0.7221717E-04 -0.1832500E-03 -0.1985047E+05  0.7296474E+04 -0.8529204E-04  0.8256447E-04
  0.3900000E+01  0.8701205E+05  0.3928950E+05 -0.1583212E-04 -0.1853133E-03  0.5148580E-02  0.2206591E-02  0.7221717E-04 -0.1768629E-03 -0.1985047E+05  0.8924874E+04 -0.8529204E-04  0.1410721E-03
  0.4000000E+01  0.8701205E+05  0.3766837E+05 -0.1583212E-04 -0.9197006E-04  0.5148580E-02  0.8276589E-04  0.7221717E-04 -0.1652043E-03 -0.1985047E+05  0.1015390E+05 -0.8529204E-04  0.2067590E-03
  0.4100000E+01  0.8701205E+05  0.3535783E+05 -0.1583212E-04  0.1287446E-04  0.5148580E-02 -0.2037501E-02  0.7221717E-04 -0.1488758E-03 -0.1985047E+05  0.1088288E+05 -0.8529204E-04  0.2739546E-03
  0.4200000E+01  0.8701205E+05  0.3229663E+05 -0.1583212E-04  0.1303167E-03  0.5148580E-02 -0.4039420E-02  0.7221717E-04 -0.1288505E-03 -0.1985047E+05  0.1107850E+05 -0.8529204E-04  0.3362497E-03
  0.4300000E+01  0.8701205E+05  0.2854099E+05 -0.1583212E-04  0.2594724E-03  0.5148580E-02 -0.5812363E-02  0.7221717E-04 -0.1063575E-03 -0.1985047E+05  0.1078358E+05 -0.8529204E-04  0.3871541E-03
  0.4400000E+01  0.8701205E+05  0.2426546E+05 -0.1583212E-04  0.3969152E-03  0.5148580E-02 -0.7258684E-02  0.7221717E-04 -0.8269362E-04 -0.1985047E+05  0.1010838E+05 -0.8529204E-04  0.4208116E-03
  0.4500000E+01  0.8701205E+05  0.1973410E+05 -0.1583212E-04  0.5365541E-03  0.5148580E-02 -0.8301895E-02  0.7221717E-04 -0.5901196E-04 -0.1985047E+05  0.9207049E+04 -0.8529204E-04  0.4326849E-03
  0.4600000E+01  0.8701205E+05  0.1524924E+05 -0.1583212E-04  0.6700227E-03  0.5148580E-02 -0.8893392E-02  0.7221717E-04 -0.3613548E-04 -0.1985047E+05  0.8245032E+04 -0.8529204E-04  0.4201327E-03
  0.4700000E+01  0.8701205E+05  0.1109147E+05 -0.1583212E-04  0.7875420E-03  0.5148580E-02 -0.9016637E-02  0.7221717E-04 -0.1444814E-04 -0.1985047E+05  0.7365178E+04 -0.8529204E-04  0.3828061E-03
  0.4800000E+01  0.8701205E+05  0.7464785E+04 -0.1583212E-04  0.8791199E-03  0.5148580E-02 -0.8688380E-02  0.7221717E-04  0.6106602E-05 -0.1985047E+05  0.6660306E+04 -0.8529204E-04  0.3227991E-03
  0.4900000E+01  0.8701205E+05  0.4459867E+04 -0.1583212E-04  0.9359057E-03  0.5148580E-02 -0.7956659E-02  0.7221717E-04  0.2591311E-04 -0.1985047E+05  0.6158251E+04 -0.8529204E-04  0.2445286E-03
  0.5000000E+01  0.8701205E+05  0.2043953E+04 -0.1583212E-04  0.9514642E-03  0.5148580E-02 -0.6895889E-02  0.7221717E-04  0.4547823E-04 -0.1985047E+05  0.5822269E+04 -0.8529204E-04  0.1543388E-03
  0.5100000E+01  0.8701205E+05  0.7941649E+02 -0.1583212E-04  0.9227539E-03  0.5148580E-02 -0.5599787E-02  0.7221717E-04  0.6518156E-04 -0.1985047E+05  0.5566072E+04 -0.8529204E-04  0.5987177E-04
  0.5200000E+01  0.8701205E+05 -0.1634091E+04 -0.1583212E-04  0.8506483E-03  0.5148580E-02 -0.4172944E-02  0.7221717E-04  0.8504102E-04 -0.1985047E+05  0.5279417E+04 -0.8529204E-04 -0.3073584E-04
  0.5300000E+01  0.8701205E+05 -0.3303553E+04 -0.1583212E-04  0.7399140E-03  0.5148580E-02 -0.2722295E-02  0.7221717E-04  0.1045563E-03 -0.1985047E+05  0.4857907E+04 -0.8529204E-04 -0.1097312E-03
  0.5400000E+01  0.8701205E+05 -0.5086491E+04 -0.1583212E-04  0.5986559E-03  0.5148580E-02 -0.1349170E-02  0.7221717E-04  0.1226757E-03 -0.1985047E+05  0.4229820E+04 -0.8529204E-04 -0.1706006E-03
  0.5500000E+01  0.8701205E+05 -0.7046863E+04 -0.1583212E-04  0.4373292E-03  0.5148580E-02 -0.1429324E-03  0.7221717E-04  0.1379090E-03 -0.1985047E+05  0.3373919E+04 -0.8529204E-04 -0.2087908E-03
  0.5600000E+01  0.8701205E+05 -0.9134619E+04 -0.1583212E-04  0.2674882E-03  0.5148580E-02  0.8235514E-03  0.7221717E-04  0.1485696E-03 -0.1985047E+05  0.2324386E+04 -0.8529204E-04 -0.2222068E-03
  0.5700000E+01  0.8701205E+05 -0.1119270E+05 -0.1583212E-04  0.1004767E-03  0.5148580E-02  0.1496406E-02  0.7221717E-04  0.1531076E-03 -0.1985047E+05  0.1162205E+04 -0.8529204E-04 -0.2114229E-03
  0.5800000E+01  0.8701205E+05 -0.1299071E+05 -0.1583212E-04 -0.5373882E-04  0.5148580E-02  0.1841558E-02  0.7221717E-04  0.1504595E-03 -0.1985047E+05 -0.4365609E+01 -0.8529204E-04 -0.1795742E-03
  0.5900000E+01  0.8701205E+05 -0.1427801E+05 -0.1583212E-04 -0.1874475E-03  0.5148580E-02  0.1844178E-02  0.7221717E-04  0.1403446E-03 -0.1985047E+05 -0.1065308E+04 -0.8529204E-04 -0.1319516E-03
  0.6000000E+01  0.8701205E+05 -0.1484387E+05 -0.1583212E-04 -0.2956663E-03  0.5148580E-02  0.1507328E-02  0.7221717E-04  0.1234314E-03 -0.1985047E+05 -0.1933797E+04 -0.8529204E-04 -0.7533658E-04
  0.6100000E+01  0.8701205E+05 -0.1457219E+05 -0.1583212E-04 -0.3762092E-03  0.5148580E-02  0.8501603E-03  0.7221717E-04  0.1013334E-03 -0.1985047E+05 -0.2564745E+04 -0.8529204E-04 -0.1718483E-04
  0.6200000E+01  0.8701205E+05 -0.1347734E+05 -0.1583212E-04 -0.4294005E-03  0.5148580E-02 -0.9389639E-04  0.7221717E-04  0.7641807E-04 -0.1985047E+05 -0.2962428E+04 -0.8529204E-04  0.3525220E-04
  0.6300000E+01  0.8701205E+05 -0.1171342E+05 -0.1583212E-04 -0.4575352E-03  0.5148580E-02 -0.1278981E-02  0.7221717E-04  0.5145814E-04 -0.1985047E+05 -0.3175602E+04 -0.8529204E-04  0.7573664E-04
  0.6400000E+01  0.8701205E+05 -0.9553505E+04 -0.1583212E-04 -0.4642299E-03  0.5148580E-02 -0.2648741E-02  0.7221717E-04  0.2918468E-04 -0.1985047E+05 -0.3281596E+04 -0.8529204E-04  0.9969053E-04
  0.6500000E+01  0.8701205E+05 -0.7342259E+04 -0.1583212E-04 -0.4537852E-03  0.5148580E-02 -0.4138391E-02  0.7221717E-04  0.1182670E-04 -0.1985047E+05 -0.3363285E+04 -0.8529204E-04  0.1045894E-03
  0.6600000E+01  0.8701205E+05 -0.5431870E+04 -0.1583212E-04 -0.4306590E-03  0.5148580E-02 -0.5677330E-02  0.7221717E-04  0.7275261E-06 -0.1985047E+05 -0.3485002E+04 -0.8529204E-04  0.9006979E-04
  0.6700000E+01  0.8701205E+05 -0.4112782E+04 -0.1583212E-04 -0.3991092E-03  0.5148580E-02 -0.7192217E-02  0.7221717E-04 -0.3887145E-05 -0.1985047E+05 -0.3673273E+04 -0.8529204E-04  0.5774881E-04
  0.6800000E+01  0.8701205E+05 -0.3554595E+04 -0.1583212E-04 -0.3630084E-03  0.5148580E-02 -0.8610507E-02  0.7221717E-04 -0.2937493E-05 -0.1985047E+05 -0.3907424E+04 -0.8529204E-04  0.1080270E-04
  0.6900000E+01  0.8701205E+05 -0.3769203E+04 -0.1583212E-04 -0.3257860E-03  0.5148580E-02 -0.9864341E-02  0.7221717E-04  0.1690660E-05 -0.1985047E+05 -0.4122734E+04 -0.8529204E-04 -0.4661435E-04
  0.7000000E+01  0.8701205E+05 -0.4603940E+04 -0.1583212E-04 -0.2904464E-03  0.5148580E-02 -0.1089420E-01  0.7221717E-04  0.7504399E-05 -0.1985047E+05 -0.4225623E+04 -0.8529204E-04 -0.1100048E-03
  0.7100000E+01  0.8701205E+05 -0.5767460E+04 -0.1583212E-04 -0.2595876E-03  0.5148580E-02 -0.1165203E-01  0.7221717E-04  0.1187092E-04 -0.1985047E+05 -0.4117780E+04 -0.8529204E-04 -0.1751079E-03
  0.7200000E+01  0.8701205E+05 -0.6884126E+04 -0.1583212E-04 -0.2353764E-03  0.5148580E-02 -0.1210323E-01  0.7221717E-04  0.1250230E-04 -0.1985047E+05 -0.3723572E+04 -0.8529204E-04 -0.2383353E-03
  0.7300000E+01  0.8701205E+05 -0.7566630E+04 -0.1583212E-04 -0.2194555E-03  0.5148580E-02 -0.1222743E-01  0.7221717E-04  0.7866914E-05 -0.1985047E+05 -0.3014420E+04 -0.8529204E-04 -0.2969894E-03
  0.7400000E+01  0.8701205E+05 -0.7493621E+04 -0.1583212E-04 -0.2127948E-03  0.5148580E-02 -0.1201779E-01  0.7221717E-04 -0.2553643E-05 -0.1985047E+05 -0.2024000E+04 -0.8529204E-04 -0.3492509E-03
  0.7500000E+01  0.8701205E+05 -0.6476757E+04 -0.1583212E-04 -0.2155276E-03  0.5148580E-02 -0.1147921E-01  0.7221717E-04 -0.1820585E-04 -0.1985047E+05 -0.8502997E+03 -0.8529204E-04 -0.3939543E-03
  0.7600000E+01  0.8701205E+05 -0.4504411E+04 -0.1583212E-04 -0.2268243E-03  0.5148580E-02 -0.1062579E-01  0.7221717E-04 -0.3761011E-04 -0.1985047E+05  0.3568840E+03 -0.8529204E-04 -0.4302178E-03
  0.7700000E+01  0.8701205E+05 -0.1752725E+04 -0.1583212E-04 -0.2448578E-03  0.5148580E-02 -0.9478135E-02  0.7221717E-04 -0.5867534E-04 -0.1985047E+05  0.1421037E+04 -0.8529204E-04 -0.4570220E-03
  0.7800000E+01  0.8701205E+05  0.1438714E+04 -0.1583212E-04 -0.2668921E-03  0.5148580E-02 -0.8061397E-02  0.7221717E-04 -0.7911296E-04 -0.1985047E+05  0.2171836E+04 -0.8529204E-04 -0.4728487E-03
  0.7900000E+01  0.8701205E+05  0.4623246E+04 -0.1583212E-04 -0.2895065E-03  0.5148580E-02 -0.6404127E-02  0.7221717E-04 -0.9686306E-04 -0.1985047E+05  0.2479346E+04 -0.8529204E-04 -0.4754738E-03
  0.8000000E+01  0.8701205E+05  0.7325044E+04 -0.1583212E-04 -0.3089177E-03  0.5148580E-02 -0.4538583E-02  0.7221717E-04 -0.1104454E-03 -0.1985047E+05  0.2282329E+04 -0.8529204E-04 -0.4619923E-03
  0.8100000E+01  0.8701205E+05  0.9125517E+04 -0.1583212E-04 -0.3213638E-03  0.5148580E-02 -0.2502130E-02  0.7221717E-04 -0.1191662E-03 -0.1985047E+05  0.1604459E+04 -0.8529204E-04 -0.4290974E-03
  0.8200000E+01  0.8701205E+05  0.9740726E+04 -0.1583212E-04 -0.3234755E-03  0.5148580E-02 -0.3394817E-03  0.7221717E-04 -0.1231456E-03 -0.1985047E+05  0.5548158E+03 -0.8529204E-04 -0.3736040E-03
  0.8300000E+01  0.8701205E+05  0.9076963E+04 -0.1583212E-04 -0.3125747E-03  0.5148580E-02  0.1895253E-02  0.7221717E-04 -0.1231686E-03 -0.1985047E+05 -0.6881743E+03 -0.8529204E-04 -0.2931288E-03
  0.8400001E+01  0.8701205E+05  0.7252526E+04 -0.1583212E-04 -0.2868640E-03  0.5148580E-02  0.4137078E-02  0.7221717E-04 -0.1204018E-03 -0.1985047E+05 -0.1906537E+04 -0.8529204E-04 -0.1868373E-03
  0.8500000E+01  0.8701205E+05  0.4581806E+04 -0.1583212E-04 -0.2454851E-03  0.5148580E-02  0.6310508E-02  0.7221717E-04 -0.1160435E-03 -0.1985047E+05 -0.2880899E+04 -0.8529204E-04 -0.5610518E-04
  0.8600000E+01  0.8701205E+05  0.1523297E+04 -0.1583212E-04 -0.1884667E-03  0.5148580E-02  0.8332119E-02  0.7221717E-04 -0.1109921E-03 -0.1985047E+05 -0.3429859E+04 -0.8529204E-04  0.9502638E-04
  0.8700000E+01  0.8701205E+05 -0.1398725E+04 -0.1583212E-04 -0.1166063E-03  0.5148580E-02  0.1011516E-01  0.7221717E-04 -0.1056076E-03 -0.1985047E+05 -0.3442846E+04 -0.8529204E-04  0.2597087E-03
  0.8800000E+01  0.8701205E+05 -0.3685856E+04 -0.1583212E-04 -0.3133551E-04  0.5148580E-02  0.1157653E-01  0.7221717E-04 -0.9961808E-04 -0.1985047E+05 -0.2900458E+04 -0.8529204E-04  0.4285393E-03
  0.8900001E+01  0.8701205E+05 -0.4952775E+04 -0.1583212E-04  0.6536783E-04  0.5148580E-02  0.1264460E-01  0.7221717E-04 -0.9219625E-04 -0.1985047E+05 -0.1878159E+04 -0.8529204E-04  0.5901967E-03
  0.9000000E+01  0.8701205E+05 -0.4996144E+04 -0.1583212E-04  0.1710033E-03  0.5148580E-02  0.1326733E-01  0.7221717E-04 -0.8218273E-04 -0.1985047E+05 -0.5329266E+03 -0.8529204E-04  0.7324271E-03
  0.9100000E+01  0.8701205E+05 -0.3829794E+04 -0.1583212E-04  0.2824956E-03  0.5148580E-02  0.1341899E-01  0.7221717E-04 -0.6840713E-04 -0.1985047E+05  0.9249237E+03 -0.8529204E-04  0.8432710E-03
  0.9200000E+01  0.8701205E+05 -0.1682239E+04 -0.1583212E-04  0.3960869E-03  0.5148580E-02  0.1310454E-01  0.7221717E-04 -0.5003323E-04 -0.1985047E+05  0.2268900E+04 -0.8529204E-04  0.9123611E-03
  0.9300000E+01  0.8701205E+05  0.1045039E+04 -0.1583212E-04  0.5072617E-03  0.5148580E-02  0.1236059E-01  0.7221717E-04 -0.2684866E-04 -0.1985047E+05  0.3296021E+04 -0.8529204E-04  0.9321588E-03
  0.9400001E+01  0.8701205E+05  0.3850157E+04 -0.1583212E-04  0.6107327E-03  0.5148580E-02  0.1125284E-01  0.7221717E-04  0.5692404E-06 -0.1985047E+05  0.3861239E+04 -0.8529204E-04  0.8989297E-03
  0.9500000E+01  0.8701205E+05  0.6221259E+04 -0.1583212E-04  0.7005886E-03  0.5148580E-02  0.9869974E-02  0.7221717E-04  0.3084929E-04 -0.1985047E+05  0.3900747E+04 -0.8529204E-04  0.8133416E-03
  0.9600000E+01  0.8701205E+05  0.7728560E+04 -0.1583212E-04  0.7706154E-03  0.5148580E-02  0.8314829E-02  0.7221717E-04  0.6199393E-04 -0.1985047E+05  0.3440104E+04 -0.8529204E-04  0.6805828E-03
  0.9700000E+01  0.8701205E+05  0.8100580E+04 -0.1583212E-04  0.8148081E-03  0.5148580E-02  0.6694318E-02  0.7221717E-04  0.9167843E-04 -0.1985047E+05  0.2586112E+04 -0.8529204E-04  0.5099858E-03
  0.9800000E+01  0.8701205E+05  0.7270842E+04 -0.1583212E-04  0.8280043E-03  0.5148580E-02  0.5109163E-02  0.7221717E-04  0.1176298E-03 -0.1985047E+05  0.1504560E+04 -0.8529204E-04  0.3141692E-03
  0.9900001E+01  0.8701205E+05  0.5387179E+04 -0.1583212E-04  0.8065780E-03  0.5148580E-02  0.3645376E-02  0.7221717E-04  0.1379990E-03 -0.1985047E+05  0.3885320E+03 -0.8529204E-04  0.1078217E-03
Zone t="DoF    2",I=   100,F=POINT
  0.0000000E+00 -0.1480181E-03  0.4493948E-03  0.8701199E+05  0.3318854E+06 -0.1737669E-03  0.9622182E-03  0.1985047E+05 -0.3903557E+05  0.1451916E-03 -0.3539728E-04 -0.6667692E-03 -0.2414349E-02
  0.1000000E+00 -0.1480181E-03  0.4447422E-03  0.8701199E+05  0.3222247E+06 -0.1737669E-03  0.9514281E-03  0.1985047E+05 -0.3766912E+05  0.1451916E-03 -0.3551765E-04 -0.6667692E-03 -0.2376122E-02
  0.2000000E+00 -0.1480181E-03  0.4304064E-03  0.8701199E+05  0.2941364E+06 -0.1737669E-03  0.9191170E-03  0.1985047E+05 -0.3375872E+05  0.1451916E-03 -0.3597414E-04 -0.6667692E-03 -0.2259345E-02
  0.3000000E+00 -0.1480181E-03  0.4053355E-03  0.8701199E+05  0.2501884E+06 -0.1737669E-03  0.8655001E-03  0.1985047E+05 -0.2783908E+05  0.1451916E-03 -0.3704208E-04 -0.6667692E-03 -0.2058543E-02
  0.4000000E+00 -0.1480181E-03  0.3680346E-03  0.8701199E+05  0.1942993E+06 -0.1737669E-03  0.7910514E-03  0.1985047E+05 -0.2070010E+05  0.1451916E-03 -0.3914308E-04 -0.6667692E-03 -0.1767181E-02
  0.5000000E+00 -0.1480181E-03  0.3169219E-03  0.8701199E+05  0.1312555E+06 -0.1737669E-03  0.6966514E-03  0.1985047E+05 -0.1325462E+05  0.1451916E-03 -0.4278642E-04 -0.6667692E-03 -0.1380950E-02
  0.6000000E+00 -0.1480181E-03  0.2507630E-03  0.8701199E+05  0.6614005E+05 -0.1737669E-03  0.5837479E-03  0.1985047E+05 -0.6388234E+04  0.1451916E-03 -0.4848279E-04 -0.6667692E-03 -0.9013383E-03
  0.7000000E+00 -0.1480181E-03  0.1691268E-03  0.8701199E+05  0.3757824E+04 -0.1737669E-03  0.4544907E-03  0.1985047E+05 -0.8185905E+03  0.1451916E-03 -0.5663356E-04 -0.6667692E-03 -0.3386686E-03
  0.8000000E+00 -0.1480181E-03  0.7279935E-04  0.8701199E+05 -0.5186238E+05 -0.1737669E-03  0.3118095E-03  0.1985047E+05  0.3011544E+04  0.1451916E-03 -0.6740428E-04 -0.6667692E-03  0.2861239E-03
  0.9000000E+00 -0.1480181E-03 -0.3590872E-04  0.8701199E+05 -0.9782326E+05 -0.1737669E-03  0.1594090E-03  0.1985047E+05  0.4989092E+04  0.1451916E-03 -0.8059981E-04 -0.6667692E-03  0.9414741E-03
  0.1000000E+01 -0.1480181E-03 -0.1530206E-03  0.8701199E+05 -0.1325335E+06 -0.1737669E-03  0.1668033E-05  0.1985047E+05  0.5325681E+04  0.1451916E-03 -0.9556374E-04 -0.6667692E-03  0.1587127E-02
  0.1100000E+01 -0.1480181E-03 -0.2729566E-03  0.8701199E+05 -0.1556925E+06 -0.1737669E-03 -0.1565506E-03  0.1985047E+05  0.4496088E+04  0.1451916E-03 -0.1111292E-03 -0.6667692E-03  0.2177851E-02
  0.1200000E+01 -0.1480181E-03 -0.3888233E-03  0.8701199E+05 -0.1681071E+06 -0.1737669E-03 -0.3101612E-03  0.1985047E+05  0.3133758E+04  0.1451916E-03 -0.1256442E-03 -0.6667692E-03  0.2668385E-02
  0.1300000E+01 -0.1480181E-03 -0.4929180E-03  0.8701199E+05 -0.1713866E+06 -0.1737669E-03 -0.4541571E-03  0.1985047E+05  0.1904381E+04  0.1451916E-03 -0.1370853E-03 -0.6667692E-03  0.3018853E-02
  0.1400000E+01 -0.1480181E-03 -0.5774097E-03  0.8701199E+05 -0.1675787E+06 -0.1737669E-03 -0.5839128E-03  0.1985047E+05  0.1381700E+04  0.1451916E-03 -0.1432600E-03 -0.6667692E-03  0.3199725E-02
  0.1500000E+01 -0.1480181E-03 -0.6351265E-03  0.8701199E+05 -0.1588080E+06 -0.1737669E-03 -0.6954518E-03  0.1985047E+05  0.1948062E+04  0.1451916E-03 -0.1420796E-03 -0.6667692E-03  0.3195514E-02
  0.1600000E+01 -0.1480181E-03 -0.6603592E-03  0.8701199E+05 -0.1469773E+06 -0.1737669E-03 -0.7856438E-03  0.1985047E+05  0.3736552E+04  0.1451916E-03 -0.1318680E-03 -0.6667692E-03  0.3006552E-02
  0.1700000E+01 -0.1480181E-03 -0.6495787E-03  0.8701199E+05 -0.1335670E+06 -0.1737669E-03 -0.8523155E-03  0.1985047E+05  0.6622724E+04  0.1451916E-03 -0.1116585E-03 -0.6667692E-03  0.2648609E-02
  0.1800000E+01 -0.1480181E-03 -0.6019640E-03  0.8701199E+05 -0.1195518E+06 -0.1737669E-03 -0.8942693E-03  0.1985047E+05  0.1026424E+05  0.1451916E-03 -0.8142609E-04 -0.6667692E-03  0.2150433E-02
  0.1900000E+01 -0.1480181E-03 -0.5196597E-03  0.8701199E+05 -0.1054279E+06 -0.1737669E-03 -0.9112137E-03  0.1985047E+05  0.1417761E+05  0.1451916E-03 -0.4220892E-04 -0.6667692E-03  0.1549705E-02
  0.2000000E+01 -0.1480181E-03 -0.4077072E-03  0.8701199E+05 -0.9132514E+05 -0.1737669E-03 -0.9036370E-03  0.1985047E+05  0.1783508E+05  0.1451916E-03  0.3915144E-05 -0.6667692E-03  0.8882015E-03
  0.2100000E+01 -0.1480181E-03 -0.2736412E-03  0.8701199E+05 -0.7716605E+05 -0.1737669E-03 -0.8726456E-03  0.1985047E+05  0.2076178E+05  0.1451916E-03  0.5400565E-04 -0.6667692E-03  0.2070163E-03
  0.2200000E+01 -0.1480181E-03 -0.1267846E-03  0.8701199E+05 -0.6283065E+05 -0.1737669E-03 -0.8198097E-03  0.1985047E+05  0.2261480E+05  0.1451916E-03  0.1045745E-03 -0.6667692E-03 -0.4573083E-03
  0.2300000E+01 -0.1480181E-03  0.2267933E-04  0.8701199E+05 -0.4829064E+05 -0.1737669E-03 -0.7470328E-03  0.1985047E+05  0.2323070E+05  0.1451916E-03  0.1519971E-03 -0.6667692E-03 -0.1075180E-02
  0.2400000E+01 -0.1480181E-03  0.1647362E-03  0.8701199E+05 -0.3368776E+05 -0.1737669E-03 -0.6564811E-03  0.1985047E+05  0.2263496E+05  0.1451916E-03  0.1929584E-03 -0.6667692E-03 -0.1624615E-02
  0.2500000E+01 -0.1480181E-03  0.2905425E-03  0.8701199E+05 -0.1934710E+05 -0.1737669E-03 -0.5505632E-03  0.1985047E+05  0.2101543E+05  0.1451916E-03  0.2248623E-03 -0.6667692E-03 -0.2090337E-02
  0.2600000E+01 -0.1480181E-03  0.3932632E-03  0.8701199E+05 -0.5730517E+04 -0.1737669E-03 -0.4319634E-03  0.1985047E+05  0.1866813E+05  0.1451916E-03  0.2461426E-03 -0.6667692E-03 -0.2461844E-02
  0.2700000E+01 -0.1480181E-03  0.4686309E-03  0.8701199E+05  0.6650286E+04 -0.1737669E-03 -0.3037056E-03  0.1985047E+05  0.1592918E+05  0.1451916E-03  0.2564180E-03 -0.6667692E-03 -0.2731153E-02
  0.2800000E+01 -0.1480181E-03  0.5151550E-03  0.8701199E+05  0.1733629E+05 -0.1737669E-03 -0.1692154E-03  0.1985047E+05  0.1310791E+05  0.1451916E-03  0.2564737E-03 -0.6667692E-03 -0.2891042E-02
  0.2900000E+01 -0.1480181E-03  0.5339620E-03  0.8701199E+05  0.2601207E+05 -0.1737669E-03 -0.3235108E-04  0.1985047E+05  0.1043472E+05  0.1451916E-03  0.2480671E-03 -0.6667692E-03 -0.2934409E-02
  0.3000000E+01 -0.1480181E-03  0.5283004E-03  0.8701199E+05  0.3256383E+05 -0.1737669E-03  0.1026236E-03  0.1985047E+05  0.8032979E+04  0.1451916E-03  0.2335987E-03 -0.6667692E-03 -0.2855062E-02
  0.3100000E+01 -0.1480181E-03  0.5028060E-03  0.8701199E+05  0.3709289E+05 -0.1737669E-03  0.2311531E-03  0.1985047E+05  0.5918044E+04  0.1451916E-03  0.2157003E-03 -0.6667692E-03 -0.2649860E-02
  0.3200000E+01 -0.1480181E-03  0.4626500E-03  0.8701199E+05  0.3988312E+05 -0.1737669E-03  0.3485849E-03  0.1985047E+05  0.4020796E+04  0.1451916E-03  0.1968137E-03 -0.6667692E-03 -0.2321670E-02
  0.3300000E+01 -0.1480181E-03  0.4127166E-03  0.8701199E+05  0.4133303E+05 -0.1737669E-03  0.4504465E-03  0.1985047E+05  0.2227580E+04  0.1451916E-03  0.1788297E-03 -0.6667692E-03 -0.1882326E-02
  0.3400000E+01 -0.1480181E-03  0.3569432E-03  0.8701199E+05  0.4186946E+05 -0.1737669E-03  0.5327691E-03  0.1985047E+05  0.4257629E+03  0.1451916E-03  0.1628407E-03 -0.6667692E-03 -0.1354655E-02
  0.3500000E+01 -0.1480181E-03  0.2979323E-03  0.8701199E+05  0.4186333E+05 -0.1737669E-03  0.5924253E-03  0.1985047E+05 -0.1456379E+04  0.1451916E-03  0.1490464E-03 -0.6667692E-03 -0.7727278E-03
  0.3600000E+01 -0.1480181E-03  0.2368792E-03  0.8701199E+05  0.4156627E+05 -0.1737669E-03  0.6274350E-03  0.1985047E+05 -0.3424454E+04  0.1451916E-03  0.1368129E-03 -0.6667692E-03 -0.1798058E-03
  0.3700000E+01 -0.1480181E-03  0.1738174E-03  0.8701199E+05  0.4108075E+05 -0.1737669E-03  0.6371901E-03  0.1985047E+05 -0.5412372E+04  0.1451916E-03  0.1248698E-03 -0.6667692E-03  0.3759663E-03
  0.3800000E+01 -0.1480181E-03  0.1081104E-03  0.8701199E+05  0.4036807E+05 -0.1737669E-03  0.6225651E-03  0.1985047E+05 -0.7296481E+04  0.1451916E-03  0.1115981E-03 -0.6667692E-03  0.8476513E-03
  0.3900000E+01 -0.1480181E-03  0.3907799E-04  0.8701199E+05  0.3928946E+05 -0.1737669E-03  0.5858863E-03  0.1985047E+05 -0.8924879E+04  0.1451916E-03  0.9535461E-04 -0.6667692E-03  0.1196355E-02
  0.4000000E+01 -0.1480181E-03 -0.3337531E-04  0.8701199E+05  0.3766834E+05 -0.1737669E-03  0.5307555E-03  0.1985047E+05 -0.1015391E+05  0.1451916E-03  0.7477743E-04 -0.6667692E-03  0.1397482E-02
  0.4100000E+01 -0.1480181E-03 -0.1082736E-03  0.8701199E+05  0.3535782E+05 -0.1737669E-03  0.4617423E-03  0.1985047E+05 -0.1088288E+05  0.1451916E-03  0.4902069E-04 -0.6667692E-03  0.1445148E-02
  0.4200000E+01 -0.1480181E-03 -0.1833269E-03  0.8701199E+05  0.3229662E+05 -0.1737669E-03  0.3839773E-03  0.1985047E+05 -0.1107851E+05  0.1451916E-03  0.1789101E-04 -0.6667692E-03  0.1353656E-02
  0.4300000E+01 -0.1480181E-03 -0.2549922E-03  0.8701199E+05  0.2854099E+05 -0.1737669E-03  0.3026997E-03  0.1985047E+05 -0.1078358E+05  0.1451916E-03 -0.1812586E-04 -0.6667692E-03  0.1155575E-02
  0.4400000E+01 -0.1480181E-03 -0.3188445E-03  0.8701199E+05  0.2426546E+05 -0.1737669E-03  0.2228007E-03  0.1985047E+05 -0.1010837E+05  0.1451916E-03 -0.5793891E-04 -0.6667692E-03  0.8965713E-03
  0.4500000E+01 -0.1480181E-03 -0.3701835E-03  0.8701199E+05  0.1973409E+05 -0.1737669E-03  0.1484335E-03  0.1985047E+05 -0.9207042E+04  0.1451916E-03 -0.9999720E-04 -0.6667692E-03  0.6278561E-03
  0.4600000E+01 -0.1480181E-03 -0.4047689E-03  0.8701199E+05  0.1524923E+05 -0.1737669E-03  0.8272264E-04  0.1985047E+05 -0.8245029E+04  0.1451916E-03 -0.1424743E-03 -0.6667692E-03  0.3976742E-03
  0.4700000E+01 -0.1480181E-03 -0.4195451E-03  0.8701199E+05  0.1109147E+05 -0.1737669E-03  0.2760938E-04  0.1985047E+05 -0.7365169E+04  0.1451916E-03 -0.1834540E-03 -0.6667692E-03  0.2434584E-03
  0.4800000E+01 -0.1480181E-03 -0.4132050E-03  0.8701199E+05  0.7464778E+04 -0.1737669E-03 -0.1615830E-04  0.1985047E+05 -0.6660302E+04  0.1451916E-03 -0.2210918E-03 -0.6667692E-03  0.1862528E-03
  0.4900000E+01 -0.1480181E-03 -0.3864861E-03  0.8701199E+05  0.4459870E+04 -0.1737669E-03 -0.4890226E-04  0.1985047E+05 -0.6158251E+04  0.1451916E-03 -0.2537317E-03 -0.6667692E-03  0.2284867E-03
  0.5000000E+01 -0.1480181E-03 -0.3421307E-03  0.8701199E+05  0.2043948E+04 -0.1737669E-03 -0.7178535E-04  0.1985047E+05 -0.5822268E+04  0.1451916E-03 -0.2799781E-03 -0.6667692E-03  0.3555609E-03