VARIABLES="w (rad/s)"
"A   1   1" "B   1   1"
"A   1   2" "B   1   2"
"A   1   3" "B   1   3"
"A   1   4" "B   1   4"
"A   1   5" "B   1   5"
"A   1   6" "B   1   6"
Zone t="Motion of body    1 in DoF   1",I=    50,F=POINT
  0.1000000E+00  0.1836301E+06  0.1550128E+01  0.1449585E-02 -0.1676381E-07 -0.3746033E-01 -0.6764578E-03 -0.1907349E-04  0.2328306E-08 -0.4250630E+04  0.1062838E+01 -0.1831055E-02  0.2980232E-07
  0.2000000E+00  0.1847610E+06  0.1436036E+02 -0.1449585E-02 -0.8940697E-07  0.2647400E-01  0.1478299E-02  0.1583099E-02  0.3166497E-06 -0.3768964E+04  0.9715893E+01  0.1525879E-03  0.8940697E-07
  0.3000000E+00  0.1874762E+06  0.6236480E+02  0.1627604E-02 -0.8940697E-06 -0.6103515E-02  0.7227361E-03 -0.7120768E-03 -0.1281500E-05 -0.2870504E+04  0.4109644E+02 -0.2034505E-03  0.5960464E-06
  0.4000000E+00  0.1919940E+06  0.2131530E+03 -0.7629395E-03  0.7152557E-06 -0.5443573E-01 -0.4538298E-02  0.1411438E-02 -0.3635883E-05 -0.1857022E+04  0.1350270E+03 -0.3509521E-02  0.9536743E-06
  0.5000000E+00  0.1977328E+06  0.6682588E+03  0.2319336E-02  0.6914139E-05  0.3112793E-01  0.5431175E-02  0.8544922E-03 -0.5602837E-05 -0.4528772E+03  0.4023834E+03 -0.9765625E-03 -0.1430511E-04
  0.6000000E+00  0.2054155E+06  0.1996894E+04 -0.1831055E-02 -0.1239777E-04  0.2459717E+00  0.8009434E-01  0.1653035E-02 -0.2241135E-04  0.1887290E+04  0.1129357E+04 -0.1627604E-02  0.0000000E+00
  0.7000000E+00  0.2173474E+06  0.5535527E+04 -0.4359654E-03 -0.3623962E-04 -0.3945487E-01 -0.1964188E-01 -0.6539481E-04 -0.2193451E-04  0.4602646E+04  0.2897249E+04 -0.1569476E-02  0.7629395E-04
  0.8000000E+00  0.2298001E+06  0.1361923E+05 -0.2288818E-03  0.6484985E-04 -0.6866455E-02 -0.4882812E-02 -0.1449585E-02  0.3051758E-04  0.7544414E+04  0.6548316E+04  0.2136230E-02 -0.1068115E-03
  0.9000000E+00  0.2445942E+06  0.2960702E+05  0.8409289E-02 -0.4119873E-03  0.8884006E-02  0.1315308E-01  0.1729329E-02 -0.5340576E-04  0.9088451E+04  0.1282597E+05 -0.1356337E-02  0.3051758E-04
  0.1000000E+01  0.2548316E+06  0.5709722E+05 -0.4028320E-02 -0.3662109E-03 -0.1300049E-01 -0.2716064E-01  0.2166748E-02 -0.1068115E-03  0.7828927E+04  0.2197905E+05 -0.9765625E-03 -0.5493164E-03
  0.1100000E+01  0.2581086E+06  0.9810716E+05 -0.1997514E-02  0.6103516E-04  0.7213246E-03 -0.5889893E-02  0.5826083E-03  0.4577637E-04  0.3737992E+04  0.3313028E+05  0.4438920E-03  0.1220703E-03
  0.1200000E+01  0.2488490E+06  0.1498853E+06 -0.2034505E-03  0.2929688E-02 -0.2136230E-02  0.2783203E-01 -0.2797444E-03  0.0000000E+00 -0.4111670E+04  0.4385186E+05 -0.2441406E-02  0.1220703E-02
  0.1300000E+01  0.2257373E+06  0.2040476E+06 -0.1784105E-02  0.8544922E-03  0.1192533E-01  0.3930664E-01 -0.4929763E-03  0.7629395E-03 -0.1489903E+05  0.5020669E+05  0.3756010E-03  0.7324219E-03
  0.1400000E+01  0.1924803E+06  0.2495193E+06 -0.1656669E-02  0.2075195E-02  0.2615792E-03  0.1434326E-01  0.8719308E-04 -0.1525879E-02 -0.2474158E+05  0.5106456E+05  0.1046317E-02  0.2929688E-02
  0.1500000E+01  0.1565682E+06  0.2799525E+06 -0.1790365E-02  0.8544922E-03  0.5249023E-02  0.2343750E-01 -0.7324219E-03  0.1220703E-03 -0.3272868E+05  0.4534261E+05  0.1627604E-03  0.9765625E-03
  0.1600000E+01  0.1234102E+06  0.2942752E+06 -0.6103516E-03 -0.2441406E-03 -0.2403259E-02  0.1477051E-01  0.8106232E-04 -0.2319336E-02 -0.3669953E+05  0.3758231E+05  0.1525879E-03  0.9765625E-03
  0.1700000E+01  0.9618654E+05  0.2960422E+06 -0.2872242E-03 -0.5737305E-02 -0.1374189E-01  0.3063965E-01  0.3096637E-03  0.1312256E-02 -0.3825833E+05  0.2760717E+05  0.0000000E+00 -0.1464844E-02
  0.1800000E+01  0.7516091E+05  0.2889087E+06  0.5425347E-03  0.1464844E-02 -0.8485583E-02  0.1043701E-01 -0.1970927E-03 -0.1586914E-02 -0.3738908E+05  0.1887142E+05  0.7459852E-03  0.2929688E-02
  0.1900000E+01  0.5967232E+05  0.2765731E+06 -0.4015471E-03 -0.2929688E-02  0.4091765E-02  0.6286621E-02 -0.6725914E-03  0.7629395E-03 -0.3554048E+05  0.1226319E+05  0.1927426E-03 -0.3417969E-02
  0.2000000E+01  0.4849781E+05  0.2612767E+06 -0.9155273E-04  0.1586914E-02 -0.2285004E-02  0.2862549E-01  0.7820129E-04 -0.7476807E-03 -0.3278461E+05  0.5825346E+04 -0.3051758E-04  0.5859375E-02
  0.2100000E+01  0.4094562E+05  0.2450545E+06  0.1162574E-03 -0.2685547E-02  0.4581270E-01  0.1196899E+00 -0.6357829E-03 -0.3967285E-03 -0.3040543E+05  0.2544829E+04  0.1453218E-03 -0.4882812E-03
  0.2200000E+01  0.3588253E+05  0.2286268E+06 -0.2496893E-03 -0.6103516E-03  0.2080744E-03  0.8850098E-02 -0.4525618E-03  0.6103516E-03 -0.2809940E+05  0.4738102E+03 -0.2774325E-04  0.1464844E-02
  0.2300000E+01  0.3270298E+05  0.2121317E+06 -0.9951385E-04 -0.3051758E-02 -0.2494480E-02  0.6835938E-02 -0.1127824E-03 -0.3662109E-03 -0.2561407E+05 -0.1916610E+03  0.3317128E-04 -0.4882812E-03
  0.2400000E+01  0.3076363E+05  0.1966521E+06  0.3933907E-04  0.1220703E-02  0.3910065E-02  0.4974365E-02  0.2225240E-04 -0.4577637E-04 -0.2402456E+05  0.4240547E+03 -0.2543131E-04 -0.1953125E-02
  0.2500000E+01  0.2928632E+05  0.1824752E+06  0.1983643E-04  0.2441406E-02  0.1757812E-02 -0.1388550E-02  0.2532959E-03  0.7247925E-03 -0.2250375E+05  0.2427788E+04 -0.3662110E-04  0.4882812E-03
  0.2600000E+01  0.2528270E+05  0.1697191E+06 -0.2406194E-03  0.7324219E-03  0.7500282E-02 -0.3356934E-02 -0.6690393E-03 -0.3814697E-05 -0.2119165E+05  0.1210996E+05 -0.4695012E-04  0.1464844E-02
  0.2700000E+01  0.3837291E+05  0.1488639E+06  0.1766064E-03  0.1220703E-03 -0.3334328E-02  0.5859375E-02  0.1525879E-03 -0.1907349E-03 -0.2138871E+05 -0.5695395E+04  0.9889955E-05  0.2197266E-02
  0.2800000E+01  0.3539216E+05  0.1390231E+06 -0.4250663E-03 -0.8544922E-03 -0.1536778E-02 -0.1096344E-01  0.1580375E-03  0.2250671E-03 -0.2045776E+05  0.1068576E+04  0.2125331E-03  0.0000000E+00
  0.2900000E+01  0.3586476E+05  0.1276660E+06  0.5261651E-04 -0.2441406E-03 -0.6734914E-02  0.3486633E-02 -0.7261079E-03 -0.1049042E-03 -0.2003667E+05  0.4473729E+04 -0.2104660E-04  0.1220703E-02
  0.3000000E+01  0.3701630E+05  0.1178532E+06 -0.4628499E-03  0.7324219E-03  0.1647949E-02  0.3913879E-02  0.2339681E-03  0.2670288E-04 -0.1997532E+05  0.6531174E+04  0.4069011E-04  0.0000000E+00
  0.3100000E+01  0.3842198E+05  0.1079208E+06  0.1279769E-03 -0.7324219E-03  0.1015940E-01 -0.3700256E-03 -0.4725303E-03  0.9346008E-04 -0.2009692E+05  0.9972232E+04  0.1968876E-04 -0.9765625E-03
  0.3200000E+01  0.3958134E+05  0.9882498E+05  0.8583069E-04 -0.9765625E-03  0.1302719E-01 -0.1125336E-03  0.3433228E-03  0.1554489E-03 -0.2028482E+05  0.1178118E+05 -0.1716614E-03  0.2441406E-03
  0.3300000E+01  0.4059666E+05  0.8951508E+05 -0.3514146E-03  0.6103516E-03  0.1720082E-01  0.4629135E-02  0.7120768E-03 -0.1268387E-03 -0.2077135E+05  0.1398521E+05  0.1664595E-03 -0.4882812E-03
  0.3400000E+01  0.4089586E+05  0.7926999E+05  0.3231273E-03  0.8544922E-03  0.1687443E-02  0.1832306E-02  0.3590303E-04  0.1221895E-04 -0.2120954E+05  0.1624371E+05  0.1077091E-03  0.2441406E-03
  0.3500000E+01  0.3933548E+05  0.5658704E+05  0.1046317E-03 -0.3662109E-03  0.1168387E-02  0.5235672E-02 -0.5929130E-03  0.3433228E-03 -0.2294619E+05  0.2115397E+05  0.3138951E-03  0.2441406E-03
  0.3600000E+01  0.6260798E+05  0.5564650E+05  0.1864963E-03 -0.2441406E-03 -0.2170139E-02  0.2716064E-02 -0.3136529E-03 -0.3013611E-03 -0.2221794E+05 -0.2298546E+04  0.6781684E-04 -0.8544922E-03
  0.3700000E+01  0.5349835E+05  0.6941205E+05  0.7629395E-03  0.2441406E-03 -0.1319679E-03 -0.3623962E-03  0.1583615E-02  0.9536743E-05 -0.2088396E+05  0.1049903E+05 -0.1195959E-03 -0.7324219E-03
  0.3800000E+01  0.5265730E+05  0.6200370E+05 -0.1311302E-03  0.9765625E-03  0.6617496E-02 -0.9813309E-03  0.9878058E-03 -0.8320808E-04 -0.2131703E+05  0.1386670E+05  0.2981487E-03  0.0000000E+00
  0.3900000E+01  0.5301382E+05  0.5555914E+05 -0.8167364E-04 -0.3051758E-03  0.6228716E-02 -0.1548290E-02 -0.1565004E-04 -0.8207560E-04 -0.2180871E+05  0.1511456E+05  0.3501696E-03  0.3662109E-03
  0.4000000E+01  0.5342575E+05  0.4920743E+05 -0.2899170E-03 -0.6103516E-04 -0.3952026E-02  0.6221533E-03 -0.1037598E-02  0.5125999E-05 -0.2229856E+05  0.1566122E+05 -0.1983643E-03  0.3662109E-03
  0.4100000E+01  0.5374496E+05  0.4053911E+05 -0.1842220E-03 -0.3051758E-03  0.4153368E-02  0.8788109E-03 -0.4838153E-03 -0.1025200E-03 -0.2298479E+05  0.1627758E+05  0.1898045E-03 -0.1220703E-03
  0.4200000E+01  0.5421446E+05  0.2160964E+05  0.4977272E-03 -0.1220703E-03  0.5507696E-02  0.9803772E-03 -0.3487723E-03 -0.5149841E-04 -0.2417942E+05  0.1542926E+05  0.1089914E-03  0.1220703E-03
  0.4300000E+01  0.6660994E+05 -0.3522531E+03  0.1231349E-02 -0.5960464E-07  0.6330623E-02 -0.2593398E-03 -0.1078761E-02 -0.3665686E-05 -0.2408703E+05  0.9437039E+02  0.4542151E-03 -0.6556511E-05
  0.4400000E+01  0.6435459E+05  0.4191031E+05 -0.1387163E-03 -0.1220703E-03  0.1009854E-01 -0.7066727E-03  0.2358176E-03  0.5817413E-04 -0.2170286E+05  0.8813401E+04  0.1248446E-03 -0.4882812E-03
  0.4500000E+01  0.6227920E+05  0.3812410E+05  0.5425347E-04 -0.1831055E-03  0.3309462E-02  0.3705025E-03 -0.1627604E-03 -0.2408028E-04 -0.2228408E+05  0.1198506E+05 -0.1491970E-03  0.2441406E-03
  0.4600000E+01  0.6185981E+05  0.3214151E+05 -0.6103516E-03 -0.1525879E-03  0.2467943E-02 -0.5119741E-03 -0.4776664E-03  0.1534820E-04 -0.2222884E+05  0.1249890E+05 -0.5970831E-04  0.1220703E-03
  0.4700000E+01  0.6173539E+05  0.2397517E+05 -0.5162016E-03  0.9155273E-04  0.4701006E-02  0.7333755E-03  0.5843792E-03 -0.1831055E-03 -0.2337002E+05  0.1217475E+05  0.2856965E-03 -0.2441406E-03
  0.4800000E+01  0.6259809E+05  0.8691971E+04  0.1366933E-03 -0.4577637E-04  0.1391093E-01  0.1010895E-02 -0.2924601E-03 -0.6389618E-04 -0.2393954E+05  0.9977028E+04  0.1207987E-03  0.0000000E+00
  0.4900000E+01  0.6933355E+05 -0.6424252E+04 -0.1806142E-03 -0.2098083E-04 -0.1494739E-03  0.6246567E-03  0.1121054E-03 -0.2241135E-04 -0.2369223E+05  0.1190701E+04 -0.2242108E-03  0.1564026E-03
  0.5000000E+01  0.7027644E+05  0.2722998E+05  0.5126953E-03  0.3356934E-03  0.2783203E-02 -0.4205704E-03  0.4272461E-03 -0.4768372E-06 -0.2271977E+05  0.5736858E+04  0.7324219E-04 -0.1831055E-03
Zone t="Motion of body    1 in DoF   2",I=    50,F=POINT
  0.1000000E+00 -0.1678467E-02  0.1490116E-07  0.1836301E+06  0.1549993E+01 -0.2446175E-02 -0.9825453E-07  0.4250671E+04 -0.1063067E+01 -0.2479553E-03 -0.1629815E-07 -0.1068115E-02 -0.1161080E-04
  0.2000000E+00  0.0000000E+00 -0.8940697E-07  0.1847609E+06  0.1436043E+02  0.4291534E-04 -0.1871027E-05  0.3769086E+04 -0.9715761E+01 -0.5340576E-03 -0.1080334E-06  0.8392334E-03  0.1421198E-04
  0.3000000E+00  0.1932780E-02 -0.2980232E-07  0.1874762E+06  0.6236527E+02 -0.4304250E-02  0.4626811E-05  0.2870479E+04 -0.4109716E+02  0.2085368E-02  0.5960464E-07  0.4831950E-02 -0.2475083E-04
  0.4000000E+00  0.2288818E-02  0.2861023E-05  0.1919940E+06  0.2131537E+03 -0.9346008E-03  0.2071261E-04  0.1857040E+04 -0.1350243E+03  0.4768372E-03 -0.7748604E-06  0.8544922E-02 -0.2372265E-04
  0.5000000E+00 -0.1586914E-02  0.0000000E+00  0.1977325E+06  0.6682574E+03 -0.1327515E-02 -0.3537536E-04  0.4528485E+03 -0.4023842E+03 -0.1831055E-03  0.4887581E-05  0.5798340E-02  0.7796288E-04
  0.6000000E+00 -0.5086263E-03 -0.2193451E-04  0.2054153E+06  0.1996893E+04  0.1608531E-02  0.1430511E-05 -0.1887294E+04 -0.1129360E+04 -0.1271566E-03 -0.1049042E-04 -0.6001790E-02 -0.2384186E-04
  0.7000000E+00 -0.7847378E-03  0.3814697E-05  0.2173471E+06  0.5535520E+04 -0.1542228E-02  0.4744530E-03 -0.4602596E+04 -0.2897250E+04  0.1068115E-02 -0.3433228E-04  0.1525879E-01 -0.3528595E-03
  0.8000000E+00 -0.6103516E-03 -0.7629395E-05  0.2297999E+06  0.1361923E+05 -0.1850128E-02 -0.4339218E-03 -0.7544357E+04 -0.6548297E+04  0.4196167E-03  0.2365112E-03  0.5416870E-02  0.2136230E-03
  0.9000000E+00 -0.1491970E-02  0.3051758E-03  0.2445940E+06  0.2960701E+05  0.1602173E-02 -0.1207352E-02 -0.9088559E+04 -0.1282594E+05  0.1288520E-02 -0.1220703E-03 -0.3797743E-02  0.5340576E-03
  0.1000000E+01  0.2197266E-02 -0.5493164E-03  0.2548313E+06  0.5709722E+05 -0.2441406E-03  0.2498627E-03 -0.7828859E+04 -0.2197901E+05  0.2258301E-02 -0.7476807E-03 -0.6225586E-02 -0.2532959E-02
  0.1100000E+01 -0.2552379E-02  0.2441406E-03  0.2581086E+06  0.9810708E+05 -0.1227639E-02  0.2902985E-02 -0.3738037E+04 -0.3313024E+05  0.1165217E-02 -0.7019043E-03 -0.1808860E-01  0.1098633E-02
  0.1200000E+01  0.0000000E+00 -0.3662109E-03  0.2488489E+06  0.1498852E+06 -0.1398722E-03  0.1251221E-02  0.4111636E+04 -0.4385181E+05  0.4323323E-03  0.5493164E-03  0.1220703E-02 -0.1647949E-02
  0.1300000E+01 -0.1126803E-02  0.0000000E+00  0.2257372E+06  0.2040475E+06  0.1120934E-02 -0.2777100E-02  0.1489907E+05 -0.5020667E+05  0.7277269E-03 -0.1831055E-02  0.5540114E-02  0.1770020E-01
  0.1400000E+01 -0.7847378E-03 -0.9765625E-03  0.1924802E+06  0.2495192E+06 -0.5427769E-02  0.5332947E-02  0.2474159E+05 -0.5106448E+05 -0.7411412E-03  0.7019043E-03  0.2964565E-02 -0.1062012E-01
  0.1500000E+01 -0.6510417E-03  0.2441406E-03  0.1565682E+06  0.2799524E+06  0.2576192E-02  0.1411438E-02  0.3272863E+05 -0.4534265E+05  0.1627604E-03 -0.2197266E-02 -0.1627604E-03  0.2001953E-01
  0.1600000E+01  0.5340576E-03  0.2197266E-02  0.1234102E+06  0.2942752E+06 -0.2169609E-02  0.3433228E-03  0.3669951E+05 -0.3758235E+05  0.3719330E-03  0.3967285E-03  0.2822876E-02 -0.6835938E-02
  0.1700000E+01 -0.7180606E-03  0.0000000E+00  0.9618652E+05  0.2960421E+06 -0.1290265E-03  0.4020691E-02  0.3825833E+05 -0.2760715E+05  0.7808909E-03  0.2136230E-02 -0.4775103E-02 -0.2624512E-01
  0.1800000E+01 -0.1695421E-03 -0.9765625E-03  0.7516090E+05  0.2889085E+06 -0.5711450E-03  0.7019043E-03  0.3738908E+05 -0.1887136E+05 -0.6061130E-03  0.1220703E-02 -0.2848307E-02 -0.1123047E-01
  0.1900000E+01  0.3212377E-04  0.3662109E-02  0.5967229E+05  0.2765729E+06  0.3124538E-03  0.9613037E-03  0.3554046E+05 -0.1226316E+05  0.3995394E-03  0.3051758E-04 -0.2585963E-02 -0.4272461E-02
  0.2000000E+01  0.4577637E-04  0.1464844E-02  0.4849780E+05  0.2612767E+06 -0.2164841E-03  0.3662109E-02  0.3278457E+05 -0.5825312E+04 -0.6484985E-04 -0.1007080E-02 -0.2403259E-02  0.1831055E-01
  0.2100000E+01  0.0000000E+00  0.1220703E-02  0.4094561E+05  0.2450546E+06  0.1289731E-03 -0.1777649E-02  0.3040547E+05 -0.2544795E+04 -0.1435053E-03  0.7476807E-03  0.5812872E-04 -0.1062012E-01
  0.2200000E+01 -0.6935813E-04  0.9765625E-03  0.3588248E+05  0.2286267E+06  0.4889748E-03 -0.5760193E-03  0.2809941E+05 -0.4737657E+03 -0.7230585E-03  0.6103516E-04 -0.3754009E-02 -0.2197266E-02
  0.2300000E+01 -0.1476122E-03  0.1708984E-02  0.3270295E+05  0.2121316E+06  0.9080638E-03  0.2487183E-02  0.2561401E+05  0.1916571E+03 -0.2023448E-03  0.3051758E-04 -0.1277094E-02 -0.6469727E-02
  0.2400000E+01  0.2988179E-03  0.0000000E+00  0.3076362E+05  0.1966520E+06 -0.3210703E-03 -0.4405975E-03  0.2402453E+05 -0.4240684E+03 -0.3337860E-03  0.1907349E-03 -0.1379649E-02 -0.5371094E-02
  0.2500000E+01 -0.2319336E-03 -0.7324219E-03  0.2928630E+05  0.1824751E+06  0.5249024E-03  0.3471375E-03  0.2250373E+05 -0.2427825E+04  0.6103516E-03 -0.1678467E-03  0.5126953E-03 -0.3662109E-02
  0.2600000E+01  0.1643254E-03  0.0000000E+00  0.2528265E+05  0.1697191E+06  0.3359868E-03 -0.1033783E-02  0.2119167E+05 -0.1211013E+05  0.1027034E-02  0.3318787E-03 -0.9026161E-02 -0.2026367E-01
  0.2700000E+01  0.5707917E-03  0.9765625E-03  0.3837291E+05  0.1488640E+06  0.1222116E-02 -0.9517670E-03  0.2138878E+05  0.5695589E+04 -0.1582393E-03  0.1144409E-04 -0.2020377E-02  0.3662109E-02
  0.2800000E+01  0.3487723E-03  0.3662109E-03  0.3539214E+05  0.1390231E+06  0.5776542E-03  0.3709793E-03  0.2045778E+05 -0.1068515E+04  0.4468645E-03 -0.1144409E-04  0.4850115E-03 -0.2075195E-02
  0.2900000E+01  0.3577923E-03 -0.1342773E-02  0.3586470E+05  0.1276659E+06  0.2328281E-03 -0.1010895E-03  0.2003671E+05 -0.4473711E+04 -0.1841578E-03  0.1506805E-03  0.1346983E-02  0.6713867E-02
  0.3000000E+01 -0.9969076E-03  0.1220703E-03  0.3701630E+05  0.1178532E+06 -0.3852844E-03  0.1440048E-03  0.1997531E+05 -0.6531157E+04 -0.3560384E-04  0.9727478E-04 -0.2817790E-02  0.1953125E-02
  0.3100000E+01 -0.1220703E-02  0.0000000E+00  0.3842194E+05  0.1079207E+06  0.1722767E-04 -0.2083778E-03  0.2009694E+05 -0.9972233E+04 -0.1092726E-02 -0.2861023E-05 -0.2165764E-02  0.1831055E-03
  0.3200000E+01 -0.4291534E-03  0.7324219E-03  0.3958134E+05  0.9882494E+05  0.1358986E-02 -0.3433228E-04  0.2028480E+05 -0.1178118E+05 -0.5722046E-04  0.4386902E-04 -0.1258850E-02  0.1831055E-03
  0.3300000E+01 -0.1849550E-04 -0.1220703E-03  0.4059662E+05  0.8951508E+05  0.1879605E-02  0.8928776E-04  0.2077134E+05 -0.1398523E+05  0.4993785E-03  0.7200241E-04  0.1202208E-03  0.4150391E-02
  0.3400000E+01  0.7180606E-04 -0.1342773E-02  0.4089585E+05  0.7926996E+05  0.1884909E-03 -0.3326684E-05  0.2120952E+05 -0.1624376E+05 -0.6462546E-03 -0.5272031E-04 -0.4846910E-02  0.9155273E-03
  0.3500000E+01 -0.4185268E-03 -0.2441406E-03  0.3933543E+05  0.5658699E+05  0.7672991E-03  0.3192425E-03  0.2294618E+05 -0.2115410E+05  0.9329660E-03 -0.2603531E-03 -0.4411970E-02 -0.3845215E-02
  0.3600000E+01  0.8180406E-03  0.2441406E-03  0.6260791E+05  0.5564661E+05  0.3814697E-03 -0.4959106E-04  0.2221803E+05  0.2298694E+04 -0.5001492E-03 -0.4291534E-03  0.1631843E-02 -0.3906250E-02
  0.3700000E+01  0.8247994E-05 -0.2441406E-03  0.5349834E+05  0.6941202E+05 -0.9608913E-03 -0.5185604E-04  0.2088398E+05 -0.1049897E+05 -0.6598395E-04  0.5912781E-04 -0.3855937E-03  0.3723145E-02
  0.3800000E+01  0.1847117E-03  0.2441406E-03  0.5265726E+05  0.6200363E+05 -0.1991674E-02 -0.6794930E-04  0.2131707E+05 -0.1386666E+05 -0.9958368E-03  0.4410744E-04 -0.6344444E-03  0.2319336E-02
  0.3900000E+01  0.2269256E-03 -0.1220703E-03  0.5301380E+05  0.5555912E+05 -0.8059770E-03 -0.6377697E-05  0.2180868E+05 -0.1511455E+05  0.1565004E-04  0.6991625E-04 -0.3423446E-02 -0.1159668E-02
  0.4000000E+01 -0.4806519E-03 -0.6103516E-03  0.5342573E+05  0.4920741E+05 -0.7400513E-03  0.1864135E-04  0.2229853E+05 -0.1566122E+05 -0.4806519E-03 -0.1606345E-03 -0.4234314E-02  0.4089355E-02
  0.4100000E+01 -0.8187643E-04 -0.6103516E-04  0.5374493E+05  0.4053905E+05  0.1697075E-02 -0.2783537E-04  0.2298481E+05 -0.1627761E+05  0.4093822E-03 -0.1194477E-03 -0.2947551E-02  0.1831055E-02
  0.4200000E+01  0.2034505E-03 -0.3051758E-03  0.5421443E+05  0.2160959E+05  0.4668463E-03 -0.1165867E-03  0.2417941E+05 -0.1542931E+05  0.1053583E-02 -0.9536743E-06 -0.9809223E-03 -0.4730225E-02
  0.4300000E+01  0.9181887E-04 -0.9536743E-06  0.6660991E+05 -0.3521963E+03 -0.2845942E-02 -0.2868474E-06  0.2408698E+05 -0.9436034E+02 -0.7522937E-03  0.4470348E-06 -0.7285628E-02 -0.2685547E-02
  0.4400000E+01  0.1291795E-03  0.6103516E-04  0.6435457E+05  0.4191031E+05 -0.7091869E-03 -0.1010895E-03  0.2170287E+05 -0.8813341E+04 -0.5132502E-03  0.1525879E-04 -0.6192814E-02  0.0000000E+00
  0.4500000E+01  0.1322428E-03  0.1220703E-03  0.6227919E+05  0.3812408E+05  0.9850396E-03 -0.1049042E-04  0.2228407E+05 -0.1198503E+05  0.1898872E-03  0.4053116E-05 -0.1629300E-02 -0.6103516E-04
  0.4600000E+01 -0.4643979E-03  0.9155273E-04  0.6185979E+05  0.3214149E+05  0.5771803E-03  0.9834766E-06  0.2222884E+05 -0.1249889E+05  0.2255647E-03  0.7539988E-05 -0.1552416E-02  0.3479004E-02
  0.4700000E+01 -0.1558345E-03  0.1525879E-03  0.6173538E+05  0.2397513E+05  0.2603734E-02 -0.3212690E-04  0.2337008E+05 -0.1217475E+05  0.3506275E-03  0.4100800E-04 -0.2529063E-02  0.2197266E-02
  0.4800000E+01  0.5594889E-03 -0.2565980E-04  0.6259808E+05  0.8691938E+04  0.2129873E-02  0.7081032E-04  0.2393955E+05 -0.9977076E+04 -0.5086263E-03 -0.1907349E-05 -0.1475016E-02  0.3200173E-03
  0.4900000E+01 -0.5542989E-03  0.0000000E+00  0.6933355E+05 -0.6424258E+04  0.1323466E-02 -0.8583069E-05  0.2369228E+05 -0.1190718E+04  0.2491231E-04  0.4768372E-05 -0.3171648E-02  0.1693726E-02
  0.5000000E+01 -0.5737304E-03 -0.6484985E-04  0.7027638E+05  0.2722998E+05  0.6652832E-03 -0.3480911E-04  0.2271980E+05 -0.5736812E+04  0.1049805E-02  0.8773804E-04 -0.1812744E-02 -0.4888535E-02
Zone t="Motion of body    1 in DoF   3",I=    50,F=POINT
  0.1000000E+00 -0.1525879E-01  0.3585815E-03  0.1747131E-01  0.2403259E-03  0.4007230E+06  0.4340626E+04  0.4354858E+00 -0.1869202E-02  0.9765625E-01 -0.4577637E-04  0.0000000E+00 -0.3814697E-05
  0.2000000E+00  0.8697510E-02  0.9155273E-04  0.4463196E-02  0.5168915E-03  0.3843927E+06  0.9182669E+04 -0.1121521E-01 -0.1045227E-02 -0.2563477E-01  0.1892090E-02  0.0000000E+00 -0.7629395E-05
  0.3000000E+00  0.6754557E-01  0.4272461E-03  0.2085368E-01 -0.3814697E-04  0.3761263E+06  0.1512831E+05 -0.3102620E-01  0.9952545E-02  0.2197266E-01 -0.2777100E-02  0.0000000E+00  0.1525879E-04
  0.4000000E+00  0.1525879E-02  0.3082275E-02 -0.9498596E-02  0.9918213E-03  0.3700660E+06  0.2304600E+05 -0.3415680E+00 -0.1374817E-01  0.1147461E+00  0.4272461E-02  0.7629395E-04 -0.1525879E-04
  0.5000000E+00 -0.2941895E-01  0.2349854E-02 -0.3356934E-02  0.3013611E-02  0.3635720E+06  0.3388125E+05 -0.3869629E-01 -0.7499695E-02 -0.8691406E-01 -0.3540039E-02  0.0000000E+00  0.0000000E+00
  0.6000000E+00 -0.1424154E-02  0.6103516E-03 -0.1070658E-01 -0.2487183E-02  0.3531675E+06  0.4775600E+05  0.6683350E-01  0.1335144E-01  0.1554362E+00 -0.1513672E-01  0.0000000E+00 -0.3051758E-04
  0.7000000E+00 -0.3278460E-01 -0.2319336E-02 -0.1303537E-01 -0.2899170E-02  0.3373304E+06  0.6260234E+05 -0.4926409E-01 -0.2349854E-01  0.4464286E-01  0.5737305E-02  0.1743862E-03  0.6103516E-04
  0.8000000E+00 -0.1068115E-01  0.7080078E-02 -0.3013611E-02 -0.6103516E-03  0.3179636E+06  0.7486720E+05 -0.3044128E-01 -0.1651001E-01  0.2624512E-01  0.2929688E-02  0.0000000E+00  0.6103516E-04
  0.9000000E+00  0.2034505E-03  0.1428223E-01 -0.1096937E-01 -0.7324219E-03  0.2990073E+06  0.8236048E+05  0.1003689E-01 -0.7049561E-02 -0.2983941E-01 -0.1074219E-01  0.1356337E-03 -0.1220703E-03
  0.1000000E+01  0.4089355E-02 -0.3662109E-02  0.4470825E-02 -0.1495361E-02  0.2832873E+06  0.8453216E+05  0.9991455E-01  0.4321289E-01 -0.5371094E-02  0.2514648E-01  0.9155273E-04 -0.1220703E-03
  0.1100000E+01  0.4411177E-02  0.1000977E-01  0.7906827E-03 -0.6805420E-02  0.2703205E+06  0.8199374E+05 -0.2376487E+00  0.2627563E-01  0.4527699E-01 -0.1562500E-01 -0.2774325E-04 -0.1220703E-03
  0.1200000E+01 -0.3445943E-02  0.1245117E-01 -0.1916885E-02 -0.4577637E-03  0.2614586E+06  0.7588151E+05 -0.6917317E-01 -0.2297974E-01  0.5208333E-01  0.7812500E-02 -0.2543131E-04 -0.1220703E-03
  0.1300000E+01  0.2476619E-02 -0.1611328E-01  0.1672598E-03  0.1867676E-01  0.2569213E+06  0.6731941E+05  0.3558819E-01 -0.3576660E-01 -0.5258413E-02  0.3369141E-01 -0.1760629E-04 -0.1220703E-03
  0.1400000E+01 -0.2332415E-02 -0.4003906E-01  0.2724784E-03  0.1730347E-01  0.2542148E+06  0.5717227E+05  0.1607840E+00  0.1856995E-01 -0.1395089E-01 -0.2929688E-01  0.3269740E-04  0.1220703E-03
  0.1500000E+01  0.2091471E-01  0.2087402E-01 -0.2543131E-03  0.1068115E-02  0.2546663E+06  0.4736072E+05 -0.3458659E-01 -0.1263428E-01  0.6119792E-01 -0.4028320E-02 -0.2034505E-04  0.0000000E+00
  0.1600000E+01  0.0000000E+00  0.1879883E-01  0.6771088E-03  0.6713867E-02  0.2561064E+06  0.3741182E+05  0.1785278E-01  0.1376343E-01 -0.1159668E-01  0.2954102E-01  0.0000000E+00 -0.1220703E-03
  0.1700000E+01 -0.7611443E-02 -0.7324219E-03  0.9065515E-03 -0.3021240E-02  0.2587270E+06  0.2909270E+05 -0.1307588E+00 -0.4615784E-02 -0.2297794E-02 -0.6103516E-03 -0.3590303E-04 -0.1220703E-03
  0.1800000E+01 -0.1152886E-01 -0.2575684E-01  0.4492866E-03 -0.3509521E-02  0.2617829E+06  0.2183547E+05 -0.1180691E+00 -0.3677368E-02  0.7595486E-02 -0.1715088E-01  0.0000000E+00  0.0000000E+00
  0.1900000E+01 -0.5075555E-02 -0.1940918E-01 -0.4095780E-03  0.4028320E-02  0.2648784E+06  0.1627008E+05  0.7529811E-01  0.7686615E-02 -0.7195724E-02 -0.2117920E-01  0.0000000E+00  0.0000000E+00
  0.2000000E+01  0.2990723E-02 -0.4699707E-01 -0.3814697E-04 -0.2258301E-02  0.2677265E+06  0.1145618E+05  0.2142334E+00 -0.2555847E-02 -0.5371094E-01 -0.1647949E-02  0.3051758E-04  0.0000000E+00
  0.2100000E+01  0.4824684E-02 -0.1354980E-01 -0.3124419E-03 -0.9307861E-03  0.2699030E+06  0.6559027E+04 -0.1114909E+00  0.7247925E-04 -0.6045387E-02  0.2323914E-01  0.2906436E-04  0.0000000E+00
  0.2200000E+01  0.9155273E-02  0.1484375E+00 -0.5409934E-03 -0.1983643E-03  0.2723857E+06  0.1389099E+05 -0.7485130E-01 -0.5977631E-02 -0.1775568E-02 -0.6237793E-01 -0.5548650E-04  0.0000000E+00
  0.2300000E+01  0.1432999E-02 -0.5798340E-02 -0.7032311E-03 -0.2258301E-02  0.2751453E+06  0.6706375E+04  0.1202658E+00 -0.1947403E-02  0.2802310E-01 -0.7690430E-02 -0.7961108E-04  0.0000000E+00
  0.2400000E+01 -0.8138021E-03 -0.3662109E-02  0.5849202E-03 -0.1228333E-02  0.2774291E+06  0.3360953E+04 -0.3407796E-01 -0.3824234E-03 -0.1546224E-01 -0.2899170E-03  0.5086263E-04  0.0000000E+00
  0.2500000E+01 -0.6250000E-02  0.6408691E-02  0.8361816E-03  0.8544922E-03  0.2778462E+06  0.2641503E+04 -0.1059570E+00  0.7085800E-03  0.1484375E-01 -0.2937317E-02  0.0000000E+00  0.0000000E+00
  0.2600000E+01 -0.5117563E-02  0.9796143E-02  0.1760629E-04 -0.1686096E-02  0.2791130E+06  0.1608995E+04 -0.9427585E-01  0.6628036E-04  0.4807692E-01  0.3841400E-02  0.0000000E+00  0.0000000E+00
  0.2700000E+01 -0.3888165E-02  0.4577637E-03  0.3108272E-03  0.2861023E-03  0.2814655E+06  0.9954965E+03  0.1100441E+00 -0.4091263E-03 -0.6221065E-01 -0.1850128E-02  0.2260561E-04  0.1525879E-04
  0.2800000E+01 -0.4294259E-02  0.1464844E-02  0.6484985E-03  0.2632141E-03  0.2821550E+06  0.2481717E+03 -0.1366316E+00 -0.1549721E-05  0.2232143E-01 -0.1096725E-02  0.2179827E-04  0.0000000E+00
  0.2900000E+01  0.2125707E-02  0.4196167E-02  0.5103802E-03  0.4615784E-03  0.2825753E+06  0.1476006E+03  0.1224071E+00 -0.2539158E-04  0.5455280E-01  0.6060600E-03 -0.5261651E-04  0.0000000E+00
  0.3000000E+01 -0.3824870E-02 -0.2433777E-02 -0.9104411E-03  0.8392334E-04  0.2832828E+06  0.5122502E+03 -0.3881836E-01 -0.2080202E-03 -0.2278646E-01  0.2765656E-03 -0.4069011E-04  0.0000000E+00
  0.3100000E+01 -0.2559539E-02 -0.2288818E-04  0.6792622E-03  0.8964539E-04  0.2845150E+06  0.3764043E+03 -0.1976752E-01  0.4673004E-04 -0.6930444E-02  0.9727478E-03  0.2953314E-04 -0.7629395E-05
  0.3200000E+01 -0.6027222E-02  0.5233765E-02 -0.2098083E-02  0.1678467E-03  0.2855470E+06 -0.4308052E+02 -0.1657104E+00  0.6075948E-05 -0.1361084E+00  0.1381636E-02 -0.1144409E-03  0.0000000E+00
  0.3300000E+01 -0.4966042E-02  0.3345490E-02  0.7583156E-03  0.9536743E-06  0.2851851E+06  0.5485594E+03  0.7176255E-01  0.5316734E-04 -0.1953125E-01  0.2746582E-03  0.1849550E-04 -0.1907349E-05
  0.3400000E+01 -0.6686940E-02  0.1148224E-02  0.5205940E-03  0.2765656E-04  0.2852258E+06  0.4258348E+03 -0.5873736E-01 -0.1187325E-03  0.2068015E-01  0.7534027E-04 -0.1795152E-04  0.1907349E-05
  0.3500000E+01 -0.2833775E-02  0.3929138E-03 -0.1198905E-03 -0.1239777E-04  0.2856869E+06  0.2734329E+03  0.5119978E-01  0.3767014E-04  0.3962054E-01  0.2441406E-03  0.1743862E-04  0.1907349E-05
  0.3600000E+01 -0.6264581E-02  0.1258850E-03  0.3687541E-03  0.4768372E-04  0.2867920E+06  0.3929651E+02 -0.1375326E+00  0.5295873E-04  0.6890191E-01  0.1167059E-03  0.4238553E-04 -0.1907349E-05
  0.3700000E+01 -0.3901301E-02  0.2365112E-03  0.1219672E-02 -0.3051758E-04  0.2870020E+06 -0.9703744E+02  0.6030933E-01  0.8702278E-04 -0.1161318E-01  0.5269051E-04 -0.3299197E-04 -0.1907349E-05
  0.3800000E+01 -0.7717735E-02 -0.7247925E-04 -0.1481709E-02  0.1993179E-03  0.2868599E+06 -0.8823238E+02  0.7998818E-01 -0.2741814E-05 -0.4111842E-01 -0.3123283E-04 -0.2810830E-04  0.0000000E+00
  0.3900000E+01 -0.5853115E-02  0.2441406E-03  0.4998231E-03 -0.7629395E-05  0.2868579E+06  0.1407963E+03  0.1190655E+00  0.9429455E-04  0.6059695E-01 -0.1521111E-03  0.2347506E-04  0.0000000E+00
  0.4000000E+01  0.6866455E-04 -0.2326965E-03  0.5302429E-03  0.1192093E-04  0.2870157E+06  0.4981164E+02  0.1806641E-01 -0.8463860E-05 -0.1171875E-01 -0.1323223E-04 -0.8392334E-04  0.0000000E+00
  0.4100000E+01 -0.8159731E-02  0.4158020E-03  0.1724988E-02 -0.6484985E-04  0.2876458E+06  0.1769387E+03 -0.3275057E-01  0.4827976E-05 -0.6002287E-01  0.1311302E-03  0.6698981E-04  0.0000000E+00
  0.4200000E+01 -0.8795602E-02  0.1373291E-03 -0.2965019E-02  0.3242493E-04  0.2883756E+06  0.1349145E+03  0.4342216E-01  0.1659989E-04 -0.1767113E-01  0.1382828E-03 -0.4541307E-05  0.0000000E+00
  0.4300000E+01 -0.7625402E-02  0.0000000E+00 -0.2820325E-02  0.1497269E-03  0.2884193E+06  0.9746708E+01 -0.6699673E-02  0.6002560E-04 -0.6540697E-01 -0.2959371E-04 -0.4169553E-04  0.0000000E+00
  0.4400000E+01 -0.7696585E-02  0.3089905E-03  0.6399371E-04  0.6961823E-04  0.2885713E+06 -0.5716188E+02 -0.2006947E+00  0.5452335E-04 -0.2840909E-01  0.6473064E-04 -0.2048232E-04  0.0000000E+00
  0.4500000E+01 -0.5220201E-02  0.3318787E-03 -0.1051797E-02  0.2765656E-04  0.2889602E+06  0.1099013E+02 -0.7671441E-01  0.6856397E-04  0.7812500E-02 -0.1569092E-04  0.2373589E-04  0.0000000E+00
  0.4600000E+01 -0.1753932E-02  0.1237392E-03 -0.1215727E-02  0.1865625E-04  0.2800796E+06  0.1115193E+03 -0.9234884E-01 -0.4455447E-04 -0.5859375E-01 -0.3004074E-04 -0.7131825E-04  0.5960464E-06
  0.4700000E+01 -0.3381283E-02  0.1182556E-03  0.1639102E-02  0.5722046E-04  0.2811407E+06 -0.5859492E+02  0.3740027E-01 -0.5142391E-04 -0.4903591E-01  0.1096725E-03 -0.1420366E-04 -0.1907349E-05
  0.4800000E+01 -0.7562637E-02  0.2288818E-04  0.1286268E-02  0.1430511E-04  0.2816152E+06  0.1294522E+02  0.2512614E+00  0.3512576E-04  0.4231771E-01  0.7128716E-04 -0.1986821E-04  0.0000000E+00
  0.4900000E+01 -0.1603730E-02 -0.6866455E-04  0.5636410E-03  0.5722046E-05  0.2821067E+06  0.2410909E+01 -0.6875797E-01 -0.6976258E-04 -0.9566327E-02  0.4034489E-05 -0.2335529E-04  0.0000000E+00
  0.5000000E+01 -0.1220703E-03  0.1296997E-03 -0.5358887E-02 -0.9536743E-05  0.2827428E+06  0.6448940E+01  0.8398438E-02  0.2946705E-04  0.4453125E-01  0.5066395E-06 -0.4577637E-05  0.0000000E+00
Zone t="Motion of body    1 in DoF   4",I=    50,F=POINT
  0.1000000E+00  0.2479553E-03 -0.6519258E-08  0.1255195E+05 -0.9711337E+00 -0.3887177E-01 -0.5704351E-07  0.1014548E+07  0.6671512E+00 -0.3967285E-02  0.1653098E-07 -0.1388073E-01 -0.5754805E-04