VARIABLES="w (rad/s)"
"abs(F   1   1)" "angle(F   1   1)"
"abs(F   1   2)" "angle(F   1   2)"
"abs(F   1   3)" "angle(F   1   3)"
"abs(F   1   4)" "angle(F   1   4)"
"abs(F   1   5)" "angle(F   1   5)"
"abs(F   1   6)" "angle(F   1   6)"
Zone t="Diffraction force - beta =   0.000 deg",I=    50,F=POINT
  0.1000000E+00  0.3432307E+04 -0.1570775E+01  0.8162104E-04 -0.1393882E+01  0.3369290E+03 -0.3082652E+01  0.1644601E-03 -0.8893763E+00  0.4145904E+04  0.1570818E+01  0.9835271E-10 -0.1621678E+01
  0.2000000E+00  0.7031375E+04 -0.1570697E+01  0.2453780E-03  0.1286924E+01  0.1315140E+04 -0.3077128E+01  0.2881328E-03 -0.2829131E+01  0.8468310E+04  0.1570895E+01  0.1312827E-09  0.1640129E+01
  0.3000000E+00  0.1097237E+05 -0.1570513E+01  0.2580200E-03 -0.2074125E+01  0.2912370E+04 -0.3068552E+01  0.1062199E-02 -0.2307132E+01  0.1314146E+05  0.1571078E+01  0.1018831E-08  0.1590437E+01
  0.4000000E+00  0.1551243E+05 -0.1570084E+01  0.6712190E-03  0.2170522E+01  0.5092806E+04 -0.3054792E+01  0.6147063E-03  0.1435123E-01  0.1844243E+05  0.1571502E+01  0.7719462E-10 -0.2540519E+01
  0.5000000E+00  0.2102130E+05 -0.1569057E+01  0.1259701E-02  0.2143680E+01  0.7783948E+04 -0.3033684E+01  0.3439382E-02  0.2931962E+01  0.2470915E+05  0.1572522E+01  0.3176728E-09  0.1158386E+01
  0.6000000E+00  0.2790085E+05 -0.1566603E+01  0.5776213E-03  0.1357858E+01  0.1080883E+05 -0.3004026E+01  0.6324306E-02 -0.2865851E+01  0.3239363E+05  0.1574956E+01  0.9064337E-09  0.1667270E+01
  0.7000000E+00  0.3645355E+05 -0.1561213E+01  0.3555914E-03  0.2613132E+01  0.1388263E+05 -0.2968271E+01  0.7544586E-02  0.2506384E+01  0.4170350E+05  0.1580296E+01  0.2708856E-08  0.1530496E+01
  0.8000000E+00  0.4673089E+05 -0.1550930E+01  0.2917840E-02  0.6969981E+00  0.1672491E+05 -0.2931541E+01  0.1361545E-02  0.1165359E+00  0.5239209E+05  0.1590505E+01  0.6608316E-09  0.2781533E+01
  0.9000000E+00  0.5835617E+05 -0.1533588E+01  0.1137370E-02 -0.2749253E+01  0.1917625E+05 -0.2897203E+01  0.9566005E-02 -0.2989573E+01  0.6414531E+05  0.1607672E+01  0.8790368E-09  0.1454655E+01
  0.1000000E+01  0.7122030E+05 -0.1507057E+01  0.7335451E-02 -0.1326827E+01  0.2117053E+05 -0.2866341E+01  0.3561242E-02 -0.7844514E+00  0.7619746E+05  0.1634017E+01  0.3184443E-08  0.1033512E+01
  0.1100000E+01  0.8477310E+05 -0.1468934E+01  0.7095120E-02  0.1833771E+01  0.2252061E+05 -0.2837310E+01  0.7808970E-02 -0.2984134E+01  0.8820084E+05  0.1671770E+01  0.6549219E-08  0.1475107E+01
  0.1200000E+01  0.9855375E+05 -0.1417474E+01  0.5048931E-02 -0.1789568E+01  0.2330691E+05 -0.2810575E+01  0.2553042E-02  0.4900452E+00  0.9922671E+05  0.1722710E+01  0.2577127E-08 -0.4686981E+00
  0.1300000E+01  0.1117911E+06 -0.1351617E+01  0.1386748E-01  0.1285176E+01  0.2354963E+05 -0.2786222E+01  0.2993983E-02  0.1978574E+01  0.1082173E+06  0.1788093E+01  0.1108845E-07 -0.1408668E+01
  0.1400000E+01  0.1230964E+06 -0.1270932E+01  0.1134063E-01 -0.1940512E+01  0.2312020E+05 -0.2763131E+01  0.6286439E-02 -0.2910780E+01  0.1144009E+06  0.1867740E+01  0.6770821E-08 -0.1370661E+01
  0.1500000E+01  0.1313374E+06 -0.1178292E+01  0.1823481E-02 -0.2068599E+01  0.2226624E+05 -0.2741525E+01  0.7151152E-02 -0.2532839E+01  0.1164385E+06  0.1959026E+01  0.4343844E-08  0.2207597E+01
  0.1600000E+01  0.1352891E+06 -0.1076840E+01  0.1018904E-01  0.1148181E+01  0.2091250E+05 -0.2722353E+01  0.8223898E-02 -0.1920989E+01  0.1135987E+06  0.2058892E+01  0.9039680E-08 -0.9247196E+00
  0.1700000E+01  0.1342946E+06 -0.9716269E+00  0.1663870E-01 -0.1439161E+01  0.1924770E+05 -0.2704204E+01  0.1338227E-01  0.1514379E+01  0.1062065E+06  0.2161845E+01  0.1156576E-07  0.1183748E+01
  0.1800000E+01  0.1283644E+06 -0.8681029E+00  0.9333876E-02  0.7062768E+00  0.1740169E+05 -0.2688289E+01  0.1070631E-01  0.1406391E+01  0.9470349E+05  0.2262783E+01  0.1527882E-08 -0.2831890E+01
  0.1900000E+01  0.1181931E+06 -0.7703221E+00  0.5125409E-02  0.1190863E-01  0.1535961E+05 -0.2675173E+01  0.6482849E-02 -0.1354936E+01  0.8077879E+05  0.2356691E+01  0.3132416E-08 -0.2303612E+01
  0.2000000E+01  0.1047768E+06 -0.6819391E+00  0.2308451E-01 -0.1371764E+01  0.1335349E+05 -0.2663333E+01  0.1804651E-01 -0.1712112E+01  0.6571373E+05  0.2439814E+01  0.6170081E-08  0.6482180E+00
  0.2100000E+01  0.8959841E+05 -0.6032412E+00  0.2369458E-01  0.1483982E+01  0.1138273E+05 -0.2654821E+01  0.1439437E-01  0.1493908E+01  0.5093046E+05  0.2511269E+01  0.6151490E-08  0.2583119E+01
  0.2200000E+01  0.7345777E+05 -0.5340410E+00  0.5896964E-02 -0.1235953E+01  0.9516190E+04 -0.2648416E+01  0.1947025E-01  0.1384162E+01  0.3738653E+05  0.2570048E+01  0.5988604E-08  0.2756294E+00
  0.2300000E+01  0.5720329E+05 -0.4741666E+00  0.1188629E-01  0.1642104E+01  0.7840720E+04 -0.2642863E+01  0.1396057E-01  0.1400111E+01  0.2568393E+05  0.2614209E+01  0.3500212E-08 -0.6656817E-01
  0.2400000E+01  0.4140264E+05 -0.4219832E+00  0.1194189E-03  0.1107149E+01  0.6351610E+04 -0.2639977E+01  0.9206582E-02 -0.1470981E+01  0.1613851E+05  0.2637772E+01  0.1856268E-08 -0.8519663E+00
  0.2500000E+01  0.2639911E+05 -0.3740608E+00  0.8416758E-02 -0.1667940E+01  0.5062175E+04 -0.2637968E+01  0.3859875E-02  0.2367245E+01  0.8821521E+04  0.2629174E+01  0.1458680E-08  0.2642246E+01
  0.2600000E+01  0.1247146E+05 -0.3214553E+00  0.6136329E-03 -0.6708574E+00  0.4002854E+04 -0.2632301E+01  0.2514969E-02 -0.1311809E+01  0.3657268E+04  0.2524465E+01  0.1951476E-08  0.1267911E+01
  0.2700000E+01  0.4543812E+03  0.1760855E+01  0.1922002E-02  0.1289225E+01  0.3136042E+04 -0.2622848E+01  0.4014145E-02  0.1433670E+01  0.8247020E+03  0.1570973E+01  0.4520754E-08 -0.1778293E+01
  0.2800000E+01  0.1157664E+05  0.2810572E+01  0.8465754E-02 -0.1624895E+01  0.2447502E+04 -0.2602853E+01  0.1233061E-02 -0.1685027E+01  0.1442897E+04  0.1201967E+00  0.6239905E-08  0.1420984E+01
  0.2900000E+01  0.2149722E+05  0.2848899E+01  0.2419035E-02 -0.1488703E+01  0.2016725E+04 -0.2534576E+01  0.1295191E-02 -0.1796409E+01  0.1542539E+04 -0.4494616E-01  0.9878167E-09 -0.7853982E+00
  0.3000000E+01  0.2995477E+05  0.2873105E+01  0.5431893E-02 -0.2030675E+01  0.2160354E+04 -0.2356868E+01  0.3154710E-03 -0.2594790E+01  0.5793647E+03 -0.1134737E+00  0.1274256E-07  0.1662283E+01
  0.3100000E+01  0.3691829E+05  0.2891720E+01  0.5277948E-02 -0.3069616E+01  0.5981736E+04  0.2183140E+01  0.2837594E-02  0.3125838E+00  0.1184039E+04  0.3068976E+01  0.5987189E-08 -0.2677945E+01
  0.3200000E+01  0.4237095E+05  0.2907017E+01  0.9344140E-03  0.2179181E+01  0.6436862E+03  0.2415608E+01  0.3354774E-03  0.3322853E+00  0.3463359E+04  0.3054632E+01  0.1211223E-08  0.9561334E+00
  0.3300000E+01  0.4630442E+05  0.2919808E+01  0.4611210E-02  0.1212413E+01  0.3769052E+03  0.2771178E+01  0.2292437E-02 -0.1676758E+01  0.5966479E+04  0.3058561E+01  0.3732559E-08 -0.3079174E+01
  0.3400000E+01  0.4879161E+05  0.2930851E+01  0.3221984E-02 -0.1987307E+00  0.2642905E+03  0.2749911E+01  0.4459173E-03  0.9414644E+00  0.8401489E+04  0.3057808E+01  0.5356059E-08  0.2542664E+01
  0.3500000E+01  0.4977666E+05  0.2939558E+01  0.2139715E-02  0.1627877E+01  0.1830282E+03  0.2759515E+01  0.7443777E-03  0.1967752E+01  0.1062752E+05  0.3064346E+01  0.1308054E-08 -0.1007480E+01
  0.3600000E+01  0.4935215E+05  0.2945306E+01  0.1993536E-02 -0.1865919E+01  0.1189448E+03  0.2852175E+01  0.3516477E-03 -0.1232610E+01  0.1248770E+05  0.3069227E+01  0.2799419E-08 -0.6241881E-01
  0.3700000E+01  0.4755103E+05  0.2950194E+01  0.2470840E-02 -0.7810314E+00  0.6947135E+02  0.3000165E+01  0.1326861E-02 -0.1187145E+01  0.1400694E+05  0.3067959E+01  0.2239293E-08  0.2984991E+01
  0.3800000E+01  0.4475956E+05  0.2948525E+01  0.1612674E-02  0.2571961E+01  0.3600124E+02  0.3111229E+01  0.1791307E-02 -0.9975970E+00  0.1461896E+05  0.3072178E+01  0.1285849E-08 -0.9065989E-01
  0.3900000E+01  0.3824996E+05 -0.3070452E+01  0.3040354E-02 -0.1520431E+01  0.1192263E+02 -0.3139828E+01  0.7052240E-03 -0.2926875E+01  0.9224744E+04 -0.2888456E+01  0.3923792E-09 -0.3012256E+00
  0.4000000E+01  0.3586862E+05  0.2988376E+01  0.4013961E-03  0.2988943E+01  0.5238226E+01  0.4147247E+00  0.3347028E-03 -0.1136067E+01  0.1377582E+05  0.3110740E+01  0.2571698E-08  0.3050933E+01
  0.4100000E+01  0.3039750E+05  0.2986310E+01  0.1618300E-02  0.2932640E+01  0.2097981E+02  0.5020704E+00  0.7023471E-03  0.2025005E+01  0.1257662E+05  0.3110277E+01  0.8394828E-09 -0.5880026E+00
  0.4200000E+01  0.2441404E+05  0.2988246E+01  0.1077340E-02  0.2724631E+00  0.3724809E+02  0.6728188E+00  0.3344468E-03  0.3108028E+00  0.1066829E+05  0.3114561E+01  0.5675247E-09 -0.3141592E+01
  0.4300000E+01  0.1802434E+05  0.2992054E+01  0.1723382E-03  0.1087349E+01  0.4970951E+02  0.8147959E+00  0.3598221E-03  0.2174989E+01  0.8271408E+04  0.3115891E+01  0.1172942E-08  0.9173701E+00
  0.4400000E+01  0.1155330E+05  0.2992202E+01  0.7983661E-03  0.2769959E+01  0.7884512E+02  0.1035708E+01  0.5137065E-03  0.2131233E+01  0.5643365E+04  0.3126696E+01  0.1678966E-08 -0.2158799E+01
  0.4500000E+01  0.5369532E+04  0.2996489E+01  0.1074249E-02 -0.2351800E+01  0.1385168E+03  0.1342816E+01  0.6905083E-03  0.6924187E+00  0.2733709E+04  0.3129033E+01  0.1061018E-08  0.1412412E+01
  0.4600000E+01  0.3481278E+03 -0.1422327E+00  0.7780486E-03  0.1124691E+01  0.3558854E+03  0.1545484E+01  0.8094769E-03 -0.2576777E+01  0.1847668E+03  0.6853720E-03  0.1416254E-08  0.1735945E+01
  0.4700000E+01  0.5382771E+04 -0.1394325E+00  0.9758470E-03 -0.1743657E+01  0.9112372E+03 -0.1989369E+01  0.5979142E-03  0.1325479E+01  0.2973535E+04  0.3045164E-02  0.7831040E-09 -0.2408777E+01
  0.4800000E+01  0.9538540E+04 -0.1328627E+00  0.3817748E-03 -0.3997869E-01  0.1593625E+03 -0.1663556E+01  0.5959274E-03  0.8922811E+00  0.5480250E+04  0.1261338E-01  0.2866395E-08 -0.1152572E+01
  0.4900000E+01  0.1261281E+05 -0.1214382E+00  0.1381874E-02  0.1100976E+01  0.4867714E+02 -0.1362933E+01  0.1572835E-02 -0.1675101E+01  0.7578733E+04  0.2406881E-01  0.7917098E-09  0.1869295E+01
  0.5000000E+01  0.1442738E+05 -0.1044120E+00  0.3885003E-03  0.2801211E+01  0.2081665E+02 -0.9190738E+00  0.2583503E-03 -0.1108606E+01  0.9151192E+04  0.4739139E-01  0.2832507E-08 -0.1405648E+01
