VARIABLES="w (rad/s)"
"abs(F   1   1)" "angle(F   1   1)"
"abs(F   1   2)" "angle(F   1   2)"
"abs(F   1   3)" "angle(F   1   3)"
"abs(F   1   4)" "angle(F   1   4)"
"abs(F   1   5)" "angle(F   1   5)"
"abs(F   1   6)" "angle(F   1   6)"
Zone t="Diffraction force - beta =   0.000 deg",I=    50,F=POINT
  0.1000000E+00  0.7865648E+04 -0.1570783E+01  0.5293906E-02  0.4503505E-04  0.1939031E+06 -0.1023562E-03  0.1584506E+00 -0.3140615E+01  0.9428812E+04  0.1570807E+01  0.2121556E-08 -0.3000514E+01
  0.2000000E+00  0.1606511E+05 -0.1570754E+01  0.1879113E-02  0.1024430E+00  0.1900940E+06 -0.4456812E-03  0.1735846E+00 -0.9415359E-03  0.1919819E+05  0.1570843E+01  0.1188426E-07 -0.3129960E+01
  0.3000000E+00  0.2497363E+05 -0.1570672E+01  0.1202430E-01 -0.2141595E-01  0.1838155E+06 -0.1156226E-02  0.1010199E+00 -0.7455674E-02  0.2967992E+05  0.1570919E+01  0.3043190E-08  0.4238079E+00
  0.4000000E+00  0.3511619E+05 -0.1570482E+01  0.4551698E-01  0.3130844E+01  0.1751745E+06 -0.2520369E-02  0.1174817E+00 -0.1116176E-03  0.4141572E+05  0.1571110E+01  0.8822999E-09  0.1824351E+00
  0.5000000E+00  0.4721680E+05 -0.1570022E+01  0.6161334E-02  0.1500839E+00  0.1643836E+06 -0.5099840E-02  0.5886031E-01  0.3141309E+01  0.5508645E+05  0.1571570E+01  0.1503119E-08  0.3112545E+01
  0.6000000E+00  0.6204952E+05 -0.1568912E+01  0.7217040E-03  0.1827313E+01  0.1518644E+06 -0.9760506E-02  0.3063038E-01 -0.7865004E-01  0.7147370E+05  0.1572681E+01  0.4307564E-08  0.3089308E+00
  0.7000000E+00  0.8006681E+05 -0.1566434E+01  0.5718807E-01 -0.1067271E-02  0.1382429E+06 -0.1731916E-01  0.9827965E-01  0.3092200E+01  0.9082045E+05  0.1575159E+01  0.6123856E-08  0.2678476E+01
  0.8000000E+00  0.1010366E+06 -0.1561608E+01  0.2550963E-01  0.3087733E+01  0.1241426E+06 -0.2809493E-01  0.1325182E+00 -0.4418700E-02  0.1123998E+06  0.1579982E+01  0.3787030E-08  0.1925969E+01
  0.9000000E+00  0.1240423E+06 -0.1553295E+01  0.8957874E-02 -0.3022071E+01  0.1099990E+06 -0.4219442E-01  0.1908700E+00 -0.3136411E+01  0.1351370E+06  0.1588298E+01  0.1726780E-08  0.1783067E+01
  0.1000000E+01  0.1484683E+06 -0.1540236E+01  0.1130833E-01 -0.6407014E+00  0.9611498E+05 -0.5990075E-01  0.1055527E+00 -0.3123070E+01  0.1575715E+06  0.1601352E+01  0.4587708E-08  0.6231995E+00
  0.1100000E+01  0.1733392E+06 -0.1521045E+01  0.5623416E-01  0.3031067E+01  0.8290875E+05 -0.8147319E-01  0.1523726E+00  0.8136580E-02  0.1787915E+06  0.1620545E+01  0.1900961E-08  0.3435385E+00
  0.1200000E+01  0.1977860E+06 -0.1494623E+01  0.9155470E-02 -0.5605537E+00  0.7051708E+05 -0.1076267E+00  0.7092116E-01  0.1065020E-01  0.1973751E+06  0.1646948E+01  0.4077964E-08  0.1228733E+01
  0.1300000E+01  0.2205995E+06 -0.1460388E+01  0.1784959E-01  0.2241357E+01  0.5911022E+05 -0.1390670E+00  0.3064052E+00  0.3126608E+01  0.2118087E+06  0.1681170E+01  0.1199185E-07 -0.1557448E+01
  0.1400000E+01  0.2399195E+06 -0.1418653E+01  0.1001698E-01 -0.1467888E+01  0.4896491E+05 -0.1753635E+00  0.1665374E+00 -0.3136668E+01  0.2209281E+06  0.1722896E+01  0.4349932E-08  0.5648056E+00
  0.1500000E+01  0.2542083E+06 -0.1371865E+01  0.7070140E-02 -0.4154304E+00  0.3997566E+05 -0.2186775E+00  0.5198876E-01 -0.3007872E+01  0.2231657E+06  0.1769616E+01  0.5216051E-08  0.2038187E+01
  0.1600000E+01  0.2619841E+06 -0.1323449E+01  0.1449993E-01  0.7884673E+00  0.3226235E+05 -0.2670227E+00  0.3111464E-01 -0.2734874E+00  0.2177953E+06  0.1817898E+01  0.1035741E-07 -0.8191825E+00
  0.1700000E+01  0.2626374E+06 -0.1278274E+01  0.1866512E-01 -0.1097917E+01  0.2571946E+05 -0.3225558E+00  0.1629728E-01  0.1963819E+01  0.2054804E+06  0.1862951E+01  0.3915516E-08 -0.8931294E-01
  0.1800000E+01  0.2565664E+06 -0.1241537E+01  0.6874708E-02  0.1445340E+01  0.2023140E+05 -0.3862149E+00  0.4437187E-01  0.2254954E+00  0.1872772E+06  0.1899337E+01  0.4717695E-08  0.1731889E+01
  0.1900000E+01  0.2450566E+06 -0.1217335E+01  0.1616729E-01 -0.1879787E+00  0.1576221E+05 -0.4536008E+00  0.1494695E-01 -0.2735445E+01  0.1655876E+06  0.1923163E+01  0.3492461E-08  0.3141593E+01
  0.2000000E+01  0.2298061E+06 -0.1208987E+01  0.2627980E-01 -0.9121400E+00  0.1212172E+05 -0.5317037E+00  0.6064157E-01 -0.2811834E+01  0.1423563E+06  0.1931072E+01  0.5974799E-08 -0.5312300E+00
  0.2100000E+01  0.2127381E+06 -0.1216605E+01  0.2370743E-01  0.1808507E+01  0.9215195E+04 -0.6160328E+00  0.2989114E-01  0.2649128E+01  0.1193944E+06  0.1922611E+01  0.1300588E-07  0.2032943E+01
  0.2200000E+01  0.1950122E+06 -0.1240596E+01  0.9420358E-02 -0.2474441E+01  0.6934164E+04 -0.7072065E+00  0.7873029E-01  0.2902141E+01  0.9787795E+05  0.1897859E+01  0.9309042E-08 -0.8872664E+00
  0.2300000E+01  0.1776591E+06 -0.1280266E+01  0.1375295E-01  0.1941774E+01  0.5165903E+04 -0.8124456E+00  0.1618370E-01  0.1038853E+01  0.7848230E+05  0.1857500E+01  0.1319197E-07  0.1162428E+01
  0.2400000E+01  0.1612453E+06 -0.1334355E+01  0.4145093E-02  0.3049433E+01  0.3812503E+04 -0.9291002E+00  0.1242944E-01 -0.2131187E+01  0.6150441E+05  0.1802660E+01  0.5308158E-08  0.1170944E+01
  0.2500000E+01  0.1460204E+06 -0.1401702E+01  0.7300040E-02 -0.1747092E+01  0.2801478E+04 -0.1059371E+01  0.9667011E-02  0.2348874E+00  0.4689697E+05  0.1735484E+01  0.1889904E-08 -0.2101642E+01
  0.2600000E+01  0.1321312E+06 -0.1481124E+01  0.8125534E-02 -0.3134081E+01  0.2080177E+04 -0.1217399E+01  0.5761170E-02 -0.4324345E+00  0.3450649E+05  0.1657342E+01  0.1701479E-07  0.1524597E+01
  0.2700000E+01  0.1195656E+06 -0.1571514E+01  0.5312251E-02  0.2872761E-01  0.1579570E+04 -0.1393537E+01  0.3672843E-02  0.1488197E+01  0.2412167E+05  0.1570802E+01  0.2853957E-08 -0.1776192E+01
  0.2800000E+01  0.1082531E+06 -0.1672104E+01  0.1187887E-01 -0.2289384E+01  0.1255718E+04 -0.1575761E+01  0.1286855E-02 -0.1479794E+01  0.1549841E+05  0.1478236E+01  0.2875245E-08  0.1016490E+01
  0.2900000E+01  0.9811003E+05 -0.1782161E+01  0.5223996E-02 -0.2232993E+01  0.1172602E+04 -0.1765790E+01  0.2178072E-02 -0.2358672E+01  0.8384017E+04  0.1385945E+01  0.1877141E-08 -0.5191461E+00
  0.3000000E+01  0.8901895E+05 -0.1901219E+01  0.6432914E-02 -0.2329355E+01  0.1631958E+04 -0.1932137E+01  0.4860272E-03 -0.2154071E+01  0.2562481E+04  0.1344221E+01  0.1065757E-07  0.1680247E+01
  0.3100000E+01  0.8087600E+05 -0.2028962E+01  0.7616421E-03 -0.1610876E+01  0.5649869E+04  0.2093707E+01  0.3004758E-02  0.3455272E+00  0.2185837E+04 -0.2141541E+01  0.4778704E-08  0.3092851E+01
  0.3200000E+01  0.7359590E+05 -0.2165130E+01  0.3757047E-04  0.1989020E+01  0.4375497E+03  0.1787401E+01  0.5756809E-03  0.2635264E+01  0.5946440E+04 -0.2189801E+01  0.4973262E-09 -0.3587706E+00
  0.3300000E+01  0.6709071E+05 -0.2309420E+01  0.4693386E-02  0.1307681E+01  0.1795861E+03  0.2278665E+01  0.2369034E-02 -0.1930402E+01  0.8910119E+04 -0.2301404E+01  0.3509878E-08 -0.3041924E+01
  0.3400000E+01  0.6132907E+05 -0.2462223E+01  0.3315693E-02 -0.2212584E+00  0.1481203E+03  0.2392270E+01  0.6304643E-03  0.5525314E+00  0.1108325E+05 -0.2427023E+01  0.4852409E-08  0.2374221E+01
  0.3500000E+01  0.5616041E+05 -0.2622566E+01  0.2414623E-02  0.1380062E+01  0.1174961E+03  0.2521879E+01  0.6441680E-03  0.1644818E+01  0.1266941E+05 -0.2561353E+01  0.1976491E-08 -0.1332960E+01
  0.3600000E+01  0.5152895E+05 -0.2791569E+01  0.2919340E-02 -0.1069155E+01  0.8391537E+02  0.2725130E+01  0.8449409E-03 -0.4115910E+00  0.1372889E+05 -0.2707406E+01  0.1660959E-08 -0.1939590E+00
  0.3700000E+01  0.4740235E+05 -0.2967121E+01  0.2516775E-02 -0.8325735E+00  0.5343473E+02  0.2957291E+01  0.1777095E-02 -0.9064859E+00  0.1448839E+05 -0.2873017E+01  0.2659778E-08 -0.2736701E+01
  0.3800000E+01  0.4393234E+05  0.3127427E+01  0.2015099E-02  0.2892941E+01  0.3090132E+02  0.3106216E+01  0.1585508E-02 -0.9997936E+00  0.1466392E+05 -0.3036982E+01  0.1927016E-08 -0.4366271E+00
  0.3900000E+01  0.3822029E+05 -0.3082340E+01  0.3086868E-02 -0.1516241E+01  0.1213795E+02 -0.3139859E+01  0.3786100E-03  0.2992177E+01  0.9197136E+04 -0.2900333E+01  0.4138352E-08  0.1394953E+01
  0.4000000E+01  0.3786272E+05  0.2782556E+01  0.1800601E-02 -0.3133118E+01  0.3273446E+01  0.7007458E+00  0.2694024E-02 -0.7264692E-01  0.1416465E+05  0.2904763E+01  0.2059597E-08 -0.2396173E+01
  0.4100000E+01  0.3538857E+05  0.2584184E+01  0.5737907E-03  0.6581275E+00  0.1864718E+02  0.5721508E+00  0.2212326E-02  0.2815714E+01  0.1393360E+05  0.2695566E+01  0.1187208E-08 -0.1373401E+01
  0.4200000E+01  0.3308842E+05  0.2387925E+01  0.1003838E-02  0.3409790E+00  0.3540310E+02  0.7150695E+00  0.8116076E-03  0.2996072E+01  0.1356063E+05  0.2475793E+01  0.6134283E-09  0.2752276E+01
  0.4300000E+01  0.3080578E+05  0.2187766E+01  0.1634654E-03  0.2547118E+01  0.4846027E+02  0.8425488E+00  0.1380674E-02  0.2048114E+00  0.1325882E+05  0.2244181E+01  0.3004891E-08 -0.1193887E+01
  0.4400000E+01  0.2866331E+05  0.1980764E+01  0.6175688E-03  0.2680707E+01  0.7818990E+02  0.1050018E+01  0.1111846E-02  0.2535317E+01  0.1304652E+05  0.2018070E+01  0.1335291E-08  0.2785373E+01
  0.4500000E+01  0.2662325E+05  0.1771711E+01  0.1225593E-02 -0.2259756E+01  0.1383266E+03  0.1348821E+01  0.8818376E-03  0.2808420E+01  0.1290075E+05  0.1784301E+01  0.4584113E-08  0.1432266E+01
  0.4600000E+01  0.2468680E+05  0.1556836E+01  0.9496371E-03  0.2464342E+01  0.3558725E+03  0.1546959E+01  0.1130297E-02 -0.2733592E+01  0.1278142E+05  0.1556340E+01  0.1439978E-08 -0.1815775E+01
  0.4700000E+01  0.2283380E+05  0.1335173E+01  0.1402647E-02 -0.5366879E+00  0.9113607E+03 -0.1989674E+01  0.4942474E-03  0.1228640E+01  0.1264984E+05  0.1333512E+01  0.4367127E-08  0.1597457E+01
  0.4800000E+01  0.2110022E+05  0.1106186E+01  0.3851899E-03  0.3002498E+01  0.1593778E+03 -0.1664584E+01  0.6773092E-03  0.1023536E+01  0.1246357E+05  0.1115569E+01  0.2346426E-08 -0.1051650E+01
  0.4900000E+01  0.1949419E+05  0.8733807E+00  0.1561554E-02  0.7041218E+00  0.4866021E+02 -0.1364589E+01  0.1734384E-02 -0.1765540E+01  0.1219410E+05  0.9003595E+00  0.4098166E-08  0.1770977E+01
  0.5000000E+01  0.1791201E+05  0.6417121E+00  0.3088376E-03 -0.2567936E+01  0.2079422E+02 -0.9204892E+00  0.1617565E-03 -0.1385580E+01  0.1187285E+05  0.6921104E+00  0.5252098E-08 -0.1482018E+01
