 VARIABLES="Time (s)"
"AddedMass    1" "IRF    1"
"AddedMass    2" "IRF    2"
"AddedMass    3" "IRF    3"
"AddedMass    4" "IRF    4"
"AddedMass    5" "IRF    5"
"AddedMass    6" "IRF    6"
Zone t="DoF    1",I=   100,F=POINT
  0.0000000E+00  0.4975118E+05  0.1281995E+06  0.4509468E-04 -0.7183792E-04 -0.5688452E-02 -0.5414960E-02  0.7865415E-04  0.3920639E-05 -0.7738103E+05 -0.3928882E+05  0.1374017E-09 -0.7096072E-09
  0.1000000E+00  0.4975118E+05  0.1235323E+06  0.4509468E-04 -0.6997363E-04 -0.5688452E-02 -0.5418756E-02  0.7865415E-04  0.3872102E-05 -0.7738103E+05 -0.3919539E+05  0.1374017E-09 -0.6754648E-09
  0.2000000E+00  0.4975118E+05  0.1100325E+06  0.4509468E-04 -0.6488689E-04 -0.5688452E-02 -0.5429313E-02  0.7865415E-04  0.3942531E-05 -0.7738103E+05 -0.3880870E+05  0.1374017E-09 -0.5750055E-09
  0.3000000E+00  0.4975118E+05  0.8913377E+05  0.4509468E-04 -0.5796859E-04 -0.5688452E-02 -0.5444188E-02  0.7865415E-04  0.4716300E-05 -0.7738103E+05 -0.3783492E+05  0.1374017E-09 -0.4141588E-09
  0.4000000E+00  0.4975118E+05  0.6300134E+05  0.4509468E-04 -0.5113990E-04 -0.5688452E-02 -0.5459343E-02  0.7865415E-04  0.6969169E-05 -0.7738103E+05 -0.3586386E+05  0.1374017E-09 -0.2028469E-09
  0.5000000E+00  0.4975118E+05  0.3423362E+05  0.4509468E-04 -0.4634673E-04 -0.5688452E-02 -0.5469235E-02  0.7865415E-04  0.1141950E-04 -0.7738103E+05 -0.3247107E+05  0.1374017E-09  0.4509842E-10
  0.6000000E+00  0.4975118E+05  0.5516958E+04  0.4509468E-04 -0.4501507E-04 -0.5688452E-02 -0.5466945E-02  0.7865415E-04  0.1846577E-04 -0.7738103E+05 -0.2732979E+05  0.1374017E-09  0.3122935E-09
  0.7000000E+00  0.4975118E+05 -0.2071259E+05  0.4509468E-04 -0.4758836E-04 -0.5688452E-02 -0.5444363E-02  0.7865415E-04  0.2797368E-04 -0.7738103E+05 -0.2030968E+05  0.1374017E-09  0.5785759E-09
  0.8000000E+00  0.4975118E+05 -0.4254791E+05  0.4509468E-04 -0.5325577E-04 -0.5688452E-02 -0.5392449E-02  0.7865415E-04  0.3916621E-04 -0.7738103E+05 -0.1154177E+05  0.1374017E-09  0.8222666E-09
  0.9000000E+00  0.4975118E+05 -0.5879052E+05  0.4509468E-04 -0.5994312E-04 -0.5688452E-02 -0.5301594E-02  0.7865415E-04  0.5064956E-04 -0.7738103E+05 -0.1435586E+04  0.1374017E-09  0.1021882E-08
  0.1000000E+01  0.4975118E+05 -0.6901081E+05  0.4509468E-04 -0.6458766E-04 -0.5688452E-02 -0.5162062E-02  0.7865415E-04  0.6057908E-04 -0.7738103E+05  0.9355921E+04  0.1374017E-09  0.1158146E-08
  0.1100000E+01  0.4975118E+05 -0.7348959E+05  0.4509468E-04 -0.6365865E-04 -0.5688452E-02 -0.4964518E-02  0.7865415E-04  0.6693897E-04 -0.7738103E+05  0.2001769E+05  0.1374017E-09  0.1216034E-08
  0.1200000E+01  0.4975118E+05 -0.7306230E+05  0.4509468E-04 -0.5383663E-04 -0.5688452E-02 -0.4700642E-02  0.7865415E-04  0.6788548E-04 -0.7738103E+05  0.2968539E+05  0.1374017E-09  0.1186544E-08
  0.1300000E+01  0.4975118E+05 -0.6890216E+05  0.4509468E-04 -0.3272699E-04 -0.5688452E-02 -0.4363747E-02  0.7865415E-04  0.6208765E-04 -0.7738103E+05  0.3756907E+05  0.1374017E-09  0.1067891E-08
  0.1400000E+01  0.4975118E+05 -0.6228548E+05  0.4509468E-04  0.5279495E-06 -0.5688452E-02 -0.3949388E-02  0.7865415E-04  0.4899928E-04 -0.7738103E+05  0.4306487E+05  0.1374017E-09  0.8658847E-09
  0.1500000E+01  0.4975118E+05 -0.5438228E+05  0.4509468E-04  0.4486088E-04 -0.5688452E-02 -0.3455861E-02  0.7865415E-04  0.2900783E-04 -0.7738103E+05  0.4583546E+05  0.1374017E-09  0.5934206E-09
  0.1600000E+01  0.4975118E+05 -0.4610491E+05  0.4509468E-04  0.9720025E-04 -0.5688452E-02 -0.2884570E-02  0.7865415E-04  0.3429581E-05 -0.7738103E+05  0.4584535E+05  0.1374017E-09  0.2691229E-09
  0.1700000E+01  0.4975118E+05 -0.3803408E+05  0.4509468E-04  0.1527307E-03 -0.5688452E-02 -0.2240155E-02  0.7865415E-04 -0.2564952E-04 -0.7738103E+05  0.4334714E+05  0.1374017E-09 -0.8463102E-10
  0.1800000E+01  0.4975118E+05 -0.3042395E+05  0.4509468E-04  0.2054649E-03 -0.5688452E-02 -0.1530404E-02  0.7865415E-04 -0.5565877E-04 -0.7738103E+05  0.3882360E+05  0.1374017E-09 -0.4439909E-09
  0.1900000E+01  0.4975118E+05 -0.2327264E+05  0.4509468E-04  0.2490380E-03 -0.5688452E-02 -0.7658977E-03  0.7865415E-04 -0.8390072E-04 -0.7738103E+05  0.3289817E+05  0.1374017E-09 -0.7858531E-09
  0.2000000E+01  0.4975118E+05 -0.1643323E+05  0.4509468E-04  0.2776018E-03 -0.5688452E-02  0.4054154E-04  0.7865415E-04 -0.1079172E-03 -0.7738103E+05  0.2623252E+05  0.1374017E-09 -0.1089695E-08
  0.2100000E+01  0.4975118E+05 -0.9734563E+04  0.4509468E-04  0.2866701E-03 -0.5688452E-02  0.8745556E-03  0.7865415E-04 -0.1257980E-03 -0.7738103E+05  0.1943026E+05  0.1374017E-09 -0.1338802E-08
  0.2200000E+01  0.4975118E+05 -0.3083427E+04  0.4509468E-04  0.2737801E-03 -0.5688452E-02  0.1721017E-02  0.7865415E-04 -0.1363827E-03 -0.7738103E+05  0.1296340E+05  0.1374017E-09 -0.1520811E-08
  0.2300000E+01  0.4975118E+05  0.3473587E+04  0.4509468E-04  0.2388644E-03 -0.5688452E-02  0.2564772E-02  0.7865415E-04 -0.1393255E-03 -0.7738103E+05  0.7132712E+04  0.1374017E-09 -0.1627661E-08
  0.2400000E+01  0.4975118E+05  0.9738183E+04  0.4509468E-04  0.1842786E-03 -0.5688452E-02  0.3391261E-02  0.7865415E-04 -0.1350244E-03 -0.7738103E+05  0.2065466E+04  0.1374017E-09 -0.1655150E-08
  0.2500000E+01  0.4975118E+05  0.1539620E+05  0.4509468E-04  0.1144891E-03 -0.5688452E-02  0.4186967E-02  0.7865415E-04 -0.1244399E-03 -0.7738103E+05 -0.2253982E+04  0.1374017E-09 -0.1602371E-08
  0.2600000E+01  0.4975118E+05  0.2008799E+05  0.4509468E-04  0.3547913E-04 -0.5688452E-02  0.4939686E-02  0.7865415E-04 -0.1088511E-03 -0.7738103E+05 -0.5931193E+04  0.1374017E-09 -0.1471307E-08
  0.2700000E+01  0.4975118E+05  0.2349306E+05  0.4509468E-04 -0.4601878E-04 -0.5688452E-02  0.5638596E-02  0.7865415E-04 -0.8960207E-04 -0.7738103E+05 -0.9100299E+04  0.1374017E-09 -0.1266729E-08
  0.2800000E+01  0.4975118E+05  0.2540707E+05  0.4509468E-04 -0.1233422E-03 -0.5688452E-02  0.6274236E-02  0.7865415E-04 -0.6789296E-04 -0.7738103E+05 -0.1186891E+05  0.1374017E-09 -0.9964682E-09
  0.2900000E+01  0.4975118E+05  0.2579271E+05  0.4509468E-04 -0.1906378E-03 -0.5688452E-02  0.6838387E-02  0.7865415E-04 -0.4465318E-04 -0.7738103E+05 -0.1428094E+05  0.1374017E-09 -0.6719016E-09
  0.3000000E+01  0.4975118E+05  0.2479283E+05  0.4509468E-04 -0.2434189E-03 -0.5688452E-02  0.7324016E-02  0.7865415E-04 -0.2051380E-04 -0.7738103E+05 -0.1630378E+05  0.1374017E-09 -0.3084363E-09
  0.3100000E+01  0.4975118E+05  0.2270454E+05  0.4509468E-04 -0.2788778E-03 -0.5688452E-02  0.7725263E-02  0.7865415E-04  0.4128275E-05 -0.7738103E+05 -0.1784072E+05  0.1374017E-09  0.7435930E-10
  0.3200000E+01  0.4975118E+05  0.1992118E+05  0.4509468E-04 -0.2959353E-03 -0.5688452E-02  0.8037545E-02  0.7865415E-04  0.2898095E-04 -0.7738103E+05 -0.1876275E+05  0.1374017E-09  0.4532566E-09
  0.3300000E+01  0.4975118E+05  0.1685698E+05  0.4509468E-04 -0.2950625E-03 -0.5688452E-02  0.8257737E-02  0.7865415E-04  0.5370549E-04 -0.7738103E+05 -0.1895078E+05  0.1374017E-09  0.8027108E-09
  0.3400000E+01  0.4975118E+05  0.1387214E+05  0.4509468E-04 -0.2779410E-03 -0.5688452E-02  0.8384376E-02  0.7865415E-04  0.7778577E-04 -0.7738103E+05 -0.1833673E+05  0.1374017E-09  0.1097040E-08
  0.3500000E+01  0.4975118E+05  0.1121474E+05  0.4509468E-04 -0.2470524E-03 -0.5688452E-02  0.8417829E-02  0.7865415E-04  0.1004558E-03 -0.7738103E+05 -0.1693329E+05  0.1374017E-09  0.1313245E-08
  0.3600000E+01  0.4975118E+05  0.8991645E+04  0.4509468E-04 -0.2052858E-03 -0.5688452E-02  0.8360323E-02  0.7865415E-04  0.1207084E-03 -0.7738103E+05 -0.1484514E+05  0.1374017E-09  0.1434070E-08
  0.3700000E+01  0.4975118E+05  0.7172932E+04  0.4509468E-04 -0.1556306E-03 -0.5688452E-02  0.8215786E-02  0.7865415E-04  0.1373826E-03 -0.7738103E+05 -0.1225946E+05  0.1374017E-09  0.1450758E-08
  0.3800000E+01  0.4975118E+05  0.5626408E+04  0.4509468E-04 -0.1009948E-03 -0.5688452E-02  0.7989448E-02  0.7865415E-04  0.1493144E-03 -0.7738103E+05 -0.9417882E+04  0.1374017E-09  0.1364943E-08
  0.3900000E+01  0.4975118E+05  0.4172210E+04  0.4509468E-04 -0.4414843E-04 -0.5688452E-02  0.7687297E-02  0.7865415E-04  0.1555141E-03 -0.7738103E+05 -0.6576952E+04  0.1374017E-09  0.1189208E-08
  0.4000000E+01  0.4975118E+05  0.2643280E+04  0.4509468E-04  0.1224139E-04 -0.5688452E-02  0.7315381E-02  0.7865415E-04  0.1553313E-03 -0.7738103E+05 -0.3965996E+04  0.1374017E-09  0.9460428E-09
  0.4100000E+01  0.4975118E+05  0.9370181E+03  0.4509468E-04  0.6554213E-04 -0.5688452E-02  0.6879169E-02  0.7865415E-04  0.1485694E-03 -0.7738103E+05 -0.1751694E+04  0.1374017E-09  0.6652102E-09
  0.4200000E+01  0.4975118E+05 -0.9537012E+03  0.4509468E-04  0.1131154E-03 -0.5688452E-02  0.6383029E-02  0.7865415E-04  0.1355254E-03 -0.7738103E+05 -0.1685626E+02  0.1374017E-09  0.3798502E-09
  0.4300000E+01  0.4975118E+05 -0.2936375E+04  0.4509468E-04  0.1523578E-03 -0.5688452E-02  0.5830035E-02  0.7865415E-04  0.1169470E-03 -0.7738103E+05  0.1242764E+04  0.1374017E-09  0.1219012E-09
  0.4400000E+01  0.4975118E+05 -0.4841273E+04  0.4509468E-04  0.1808517E-03 -0.5688452E-02  0.5222100E-02  0.7865415E-04  0.9391915E-04 -0.7738103E+05  0.2104050E+04  0.1374017E-09 -0.8242388E-10
  0.4500000E+01  0.4975118E+05 -0.6463474E+04  0.4509468E-04  0.1966164E-03 -0.5688452E-02  0.4560511E-02  0.7865415E-04  0.6770985E-04 -0.7738103E+05  0.2688547E+04  0.1374017E-09 -0.2163049E-09
  0.4600000E+01  0.4975118E+05 -0.7613724E+04  0.4509468E-04  0.1984222E-03 -0.5688452E-02  0.3846791E-02  0.7865415E-04  0.3960891E-04 -0.7738103E+05  0.3128191E+04  0.1374017E-09 -0.2744954E-09
  0.4700000E+01  0.4975118E+05 -0.8165034E+04  0.4509468E-04  0.1860944E-03 -0.5688452E-02  0.3083703E-02  0.7865415E-04  0.1079941E-04 -0.7738103E+05  0.3532654E+04  0.1374017E-09 -0.2636010E-09
  0.4800000E+01  0.4975118E+05 -0.8084125E+04  0.4509468E-04  0.1607347E-03 -0.5688452E-02  0.2276287E-02  0.7865415E-04 -0.1771320E-04 -0.7738103E+05  0.3965557E+04  0.1374017E-09 -0.2004026E-09
  0.4900000E+01  0.4975118E+05 -0.7440465E+04  0.4509468E-04  0.1247836E-03 -0.5688452E-02  0.1432630E-02  0.7865415E-04 -0.4510425E-04 -0.7738103E+05  0.4434178E+04  0.1374017E-09 -0.1085235E-09
  0.5000000E+01  0.4975118E+05 -0.6391429E+04  0.4509468E-04  0.8187794E-04 -0.5688452E-02  0.5642501E-03  0.7865415E-04 -0.7067232E-04 -0.7738103E+05  0.4894188E+04  0.1374017E-09 -0.1404509E-10
  0.5100000E+01  0.4975118E+05 -0.5147627E+04  0.4509468E-04  0.3649676E-04 -0.5688452E-02 -0.3140485E-03  0.7865415E-04 -0.9374818E-04 -0.7738103E+05  0.5266809E+04  0.1374017E-09  0.5911847E-10
  0.5200000E+01  0.4975118E+05 -0.3927411E+04  0.4509468E-04 -0.6570152E-05 -0.5688452E-02 -0.1184896E-02  0.7865415E-04 -0.1136055E-03 -0.7738103E+05  0.5463896E+04  0.1374017E-09  0.9324879E-10
  0.5300000E+01  0.4975118E+05 -0.2911242E+04  0.4509468E-04 -0.4285443E-04 -0.5688452E-02 -0.2029541E-02  0.7865415E-04 -0.1294107E-03 -0.7738103E+05  0.5413938E+04  0.1374017E-09  0.7953231E-10
  0.5400000E+01  0.4975118E+05 -0.2206878E+04  0.4509468E-04 -0.6883757E-04 -0.5688452E-02 -0.2829410E-02  0.7865415E-04 -0.1402409E-03 -0.7738103E+05  0.5082972E+04  0.1374017E-09  0.1899393E-10
  0.5500000E+01  0.4975118E+05 -0.1832609E+04  0.4509468E-04 -0.8246157E-04 -0.5688452E-02 -0.3567706E-02  0.7865415E-04 -0.1451795E-03 -0.7738103E+05  0.4485325E+04  0.1374017E-09 -0.7845359E-10
  0.5600000E+01  0.4975118E+05 -0.1722159E+04  0.4509468E-04 -0.8342587E-04 -0.5688452E-02 -0.4230881E-02  0.7865415E-04 -0.1434788E-03 -0.7738103E+05  0.3682281E+04  0.1374017E-09 -0.1965781E-09
  0.5700000E+01  0.4975118E+05 -0.1748689E+04  0.4509468E-04 -0.7320393E-04 -0.5688452E-02 -0.4809687E-02  0.7865415E-04 -0.1347592E-03 -0.7738103E+05  0.2769426E+04  0.1374017E-09 -0.3164513E-09
  0.5800000E+01  0.4975118E+05 -0.1761711E+04  0.4509468E-04 -0.5476763E-04 -0.5688452E-02 -0.5299679E-02  0.7865415E-04 -0.1191972E-03 -0.7738103E+05  0.1856236E+04  0.1374017E-09 -0.4203570E-09
  0.5900000E+01  0.4975118E+05 -0.1627453E+04  0.4509468E-04 -0.3205458E-04 -0.5688452E-02 -0.5701077E-02  0.7865415E-04 -0.9765071E-04 -0.7738103E+05  0.1043130E+04  0.1374017E-09 -0.4951985E-09
  0.6000000E+01  0.4975118E+05 -0.1262833E+04  0.4509468E-04 -0.9276405E-05 -0.5688452E-02 -0.6018020E-02  0.7865415E-04 -0.7168011E-04 -0.7738103E+05  0.4015315E+03  0.1374017E-09 -0.5347294E-09
  0.6100000E+01  0.4975118E+05 -0.6554656E+03  0.4509468E-04  0.9818360E-05 -0.5688452E-02 -0.6257405E-02  0.7865415E-04 -0.4343866E-04 -0.7738103E+05 -0.3839865E+02  0.1374017E-09 -0.5402015E-09
  0.6200000E+01  0.4975118E+05  0.1347901E+03  0.4509468E-04  0.2258437E-04 -0.5688452E-02 -0.6427427E-02  0.7865415E-04 -0.1543507E-04 -0.7738103E+05 -0.2899481E+03  0.1374017E-09 -0.5193548E-09
  0.6300000E+01  0.4975118E+05  0.9921096E+03  0.4509468E-04  0.2790541E-04 -0.5688452E-02 -0.6536219E-02  0.7865415E-04  0.9800295E-05 -0.7738103E+05 -0.4018545E+03  0.1374017E-09 -0.4840310E-09
  0.6400000E+01  0.4975118E+05  0.1774427E+04  0.4509468E-04  0.2632627E-04 -0.5688452E-02 -0.6590673E-02  0.7865415E-04  0.3009123E-04 -0.7738103E+05 -0.4426651E+03  0.1374017E-09 -0.4469662E-09
  0.6500000E+01  0.4975118E+05  0.2348796E+04  0.4509468E-04  0.1985550E-04 -0.5688452E-02 -0.6595708E-02  0.7865415E-04  0.4396227E-04 -0.7738103E+05 -0.4816387E+03  0.1374017E-09 -0.4184533E-09
  0.6600000E+01  0.4975118E+05  0.2623477E+04  0.4509468E-04  0.1148527E-04 -0.5688452E-02 -0.6554054E-02  0.7865415E-04  0.5088529E-04 -0.7738103E+05 -0.5708757E+03  0.1374017E-09 -0.4036474E-09
  0.6700000E+01  0.4975118E+05  0.2569465E+04  0.4509468E-04  0.4507997E-05 -0.5688452E-02 -0.6466513E-02  0.7865415E-04  0.5137144E-04 -0.7738103E+05 -0.7331798E+03  0.1374017E-09 -0.4010423E-09
  0.6800000E+01  0.4975118E+05  0.2226269E+04  0.4509468E-04  0.1766659E-05 -0.5688452E-02 -0.6332603E-02  0.7865415E-04  0.4687881E-04 -0.7738103E+05 -0.9582017E+03  0.1374017E-09 -0.4024965E-09
  0.6900000E+01  0.4975118E+05  0.1691051E+04  0.4509468E-04  0.4983446E-05 -0.5688452E-02 -0.6151432E-02  0.7865415E-04  0.3954435E-04 -0.7738103E+05 -0.1207382E+04  0.1374017E-09 -0.3947660E-09
  0.7000000E+01  0.4975118E+05  0.1094430E+04  0.4509468E-04  0.1430131E-04 -0.5688452E-02 -0.5922537E-02  0.7865415E-04  0.3178267E-04 -0.7738103E+05 -0.1426127E+04  0.1374017E-09 -0.3622680E-09
  0.7100000E+01  0.4975118E+05  0.5690497E+03  0.4509468E-04  0.2813510E-04 -0.5688452E-02 -0.5646579E-02  0.7865415E-04  0.2582464E-04 -0.7738103E+05 -0.1559758E+04  0.1374017E-09 -0.2905006E-09
  0.7200000E+01  0.4975118E+05  0.2186678E+03  0.4509468E-04  0.4337133E-04 -0.5688452E-02 -0.5325676E-02  0.7865415E-04  0.2328450E-04 -0.7738103E+05 -0.1569004E+04  0.1374017E-09 -0.1694125E-09
  0.7300000E+01  0.4975118E+05  0.9532755E+02  0.4509468E-04  0.5589056E-04 -0.5688452E-02 -0.4963396E-02  0.7865415E-04  0.2484160E-04 -0.7738103E+05 -0.1441187E+04  0.1374017E-09  0.3914167E-11
  0.7400000E+01  0.4975118E+05  0.1896505E+03  0.4509468E-04  0.6132800E-04 -0.5688452E-02 -0.4564328E-02  0.7865415E-04  0.3010367E-04 -0.7738103E+05 -0.1194137E+04  0.1374017E-09  0.2238394E-09
  0.7500000E+01  0.4975118E+05  0.4363844E+03  0.4509468E-04  0.5593328E-04 -0.5688452E-02 -0.4133448E-02  0.7865415E-04  0.3768518E-04 -0.7738103E+05 -0.8723529E+03  0.1374017E-09  0.4762495E-09
  0.7600000E+01  0.4975118E+05  0.7332936E+03  0.4509468E-04  0.3737838E-04 -0.5688452E-02 -0.3675335E-02  0.7865415E-04  0.4548983E-04 -0.7738103E+05 -0.5361177E+03  0.1374017E-09  0.7401496E-09
  0.7700000E+01  0.4975118E+05  0.9683804E+03  0.4509468E-04  0.5361722E-05 -0.5688452E-02 -0.3193473E-02  0.7865415E-04  0.5114744E-04 -0.7738103E+05 -0.2467802E+03  0.1374017E-09  0.9904532E-09
  0.7800000E+01  0.4975118E+05  0.1048655E+04  0.4509468E-04 -0.3810611E-04 -0.5688452E-02 -0.2689777E-02  0.7865415E-04  0.5252002E-04 -0.7738103E+05 -0.5179864E+02  0.1374017E-09  0.1201452E-08
  0.7900000E+01  0.4975118E+05  0.9233607E+03  0.4509468E-04 -0.8879905E-04 -0.5688452E-02 -0.2164435E-02  0.7865415E-04  0.4817692E-04 -0.7738103E+05  0.2654581E+02  0.1374017E-09  0.1350364E-08
  0.8000000E+01  0.4975118E+05  0.5961628E+03  0.4509468E-04 -0.1407500E-03 -0.5688452E-02 -0.1616197E-02  0.7865415E-04  0.3774288E-04 -0.7738103E+05 -0.3817183E+01  0.1374017E-09  0.1420327E-08
  0.8100000E+01  0.4975118E+05  0.1237331E+03  0.4509468E-04 -0.1870334E-03 -0.5688452E-02 -0.1042985E-02  0.7865415E-04  0.2204213E-04 -0.7738103E+05 -0.1075384E+03  0.1374017E-09  0.1402383E-08
  0.8200000E+01  0.4975118E+05 -0.3989379E+03  0.4509468E-04 -0.2207362E-03 -0.5688452E-02 -0.4428526E-03  0.7865415E-04  0.3007950E-05 -0.7738103E+05 -0.2312776E+03  0.1374017E-09  0.1296210E-08
  0.8300000E+01  0.4975118E+05 -0.8622270E+03  0.4509468E-04 -0.2359672E-03 -0.5688452E-02  0.1849519E-03  0.7865415E-04 -0.1663475E-04 -0.7738103E+05 -0.3177275E+03  0.1374017E-09  0.1109556E-08
  0.8400001E+01  0.4975118E+05 -0.1168802E+04  0.4509468E-04 -0.2287421E-03 -0.5688452E-02  0.8388688E-03  0.7865415E-04 -0.3385290E-04 -0.7738103E+05 -0.3204714E+03  0.1374017E-09  0.8566527E-09
  0.8500000E+01  0.4975118E+05 -0.1257196E+04  0.4509468E-04 -0.1976155E-03 -0.5688452E-02  0.1514111E-02  0.7865415E-04 -0.4586369E-04 -0.7738103E+05 -0.2161500E+03  0.1374017E-09  0.5559419E-09
  0.8600000E+01  0.4975118E+05 -0.1116311E+04  0.4509468E-04 -0.1439598E-03 -0.5688452E-02  0.2202090E-02  0.7865415E-04 -0.5066061E-04 -0.7738103E+05 -0.1081110E+02  0.1374017E-09  0.2276169E-09
  0.8700000E+01  0.4975118E+05 -0.7875383E+03  0.4509468E-04 -0.7186325E-04 -0.5688452E-02  0.2890164E-02  0.7865415E-04 -0.4739906E-04 -0.7738103E+05  0.2610731E+03  0.1374017E-09 -0.1085732E-09
  0.8800000E+01  0.4975118E+05 -0.3541857E+03  0.4509468E-04  0.1234016E-04 -0.5688452E-02  0.3562000E-02  0.7865415E-04 -0.3656805E-04 -0.7738103E+05  0.5446390E+03  0.1374017E-09 -0.4349687E-09
  0.8900001E+01  0.4975118E+05  0.7901546E+02  0.4509468E-04  0.1008185E-03 -0.5688452E-02  0.4198295E-02  0.7865415E-04 -0.1990936E-04 -0.7738103E+05  0.7777684E+03  0.1374017E-09 -0.7368554E-09
  0.9000000E+01  0.4975118E+05  0.4109799E+03  0.4509468E-04  0.1851654E-03 -0.5688452E-02  0.4778008E-02  0.7865415E-04 -0.1000929E-06 -0.7738103E+05  0.9062920E+03  0.1374017E-09 -0.1002623E-08
  0.9100000E+01  0.4975118E+05  0.5682695E+03  0.4509468E-04  0.2573633E-03 -0.5688452E-02  0.5279943E-02  0.7865415E-04  0.1974235E-04 -0.7738103E+05  0.8971788E+03  0.1374017E-09 -0.1223350E-08
  0.9200000E+01  0.4975118E+05  0.5218269E+03  0.4509468E-04  0.3106526E-03 -0.5688452E-02  0.5684447E-02  0.7865415E-04  0.3663157E-04 -0.7738103E+05  0.7470797E+03  0.1374017E-09 -0.1392085E-08
  0.9300000E+01  0.4975118E+05  0.2927445E+03  0.4509468E-04  0.3402108E-03 -0.5688452E-02  0.5975254E-02  0.7865415E-04  0.4825267E-04 -0.7738103E+05  0.4836589E+03  0.1374017E-09 -0.1503192E-08
  0.9400001E+01  0.4975118E+05 -0.5389613E+02  0.4509468E-04  0.3435690E-03 -0.5688452E-02  0.6141081E-02  0.7865415E-04  0.5336160E-04 -0.7738103E+05  0.1597848E+03  0.1374017E-09 -0.1551941E-08
  0.9500000E+01  0.4975118E+05 -0.4257527E+03  0.4509468E-04  0.3207406E-03 -0.5688452E-02  0.6176947E-02  0.7865415E-04  0.5196749E-04 -0.7738103E+05 -0.1582915E+03  0.1374017E-09 -0.1534565E-08
  0.9600000E+01  0.4975118E+05 -0.7259719E+03  0.4509468E-04  0.2740780E-03 -0.5688452E-02  0.6084947E-02  0.7865415E-04  0.4526621E-04 -0.7738103E+05 -0.4057949E+03  0.1374017E-09 -0.1448776E-08
  0.9700000E+01  0.4975118E+05 -0.8765049E+03  0.4509468E-04  0.2079018E-03 -0.5688452E-02  0.5874398E-02  0.7865415E-04  0.3533816E-04 -0.7738103E+05 -0.5340014E+03  0.1374017E-09 -0.1294641E-08
  0.9800000E+01  0.4975118E+05 -0.8366556E+03  0.4509468E-04  0.1279732E-03 -0.5688452E-02  0.5561270E-02  0.7865415E-04  0.2467927E-04 -0.7738103E+05 -0.5209829E+03  0.1374017E-09 -0.1075580E-08
  0.9900001E+01  0.4975118E+05 -0.6119538E+03  0.4509468E-04  0.4089005E-04 -0.5688452E-02  0.5166906E-02  0.7865415E-04  0.1565980E-04 -0.7738103E+05 -0.3762238E+03  0.1374017E-09 -0.7992773E-09
Zone t="DoF    2",I=   100,F=POINT
  0.0000000E+00 -0.6172519E-04  0.8973122E-04  0.4975110E+05  0.1281994E+06  0.4328716E-04  0.2525407E-04  0.7738090E+05  0.3928868E+05  0.1604723E-03 -0.1801037E-03 -0.4874083E-09 -0.9312886E-08
  0.1000000E+00 -0.6172519E-04  0.8875960E-04  0.4975110E+05  0.1235323E+06  0.4328716E-04  0.2640113E-04  0.7738090E+05  0.3919526E+05  0.1604723E-03 -0.1764067E-03 -0.4874083E-09 -0.8594707E-08
  0.2000000E+00 -0.6172519E-04  0.8564444E-04  0.4975110E+05  0.1100324E+06  0.4328716E-04  0.2957410E-04  0.7738090E+05  0.3880858E+05  0.1604723E-03 -0.1655646E-03 -0.4874083E-09 -0.6546659E-08
  0.3000000E+00 -0.6172519E-04  0.7984251E-04  0.4975110E+05  0.8913368E+05  0.4328716E-04  0.3401232E-04  0.7738090E+05  0.3783483E+05  0.1604723E-03 -0.1482935E-03 -0.4874083E-09 -0.3472614E-08
  0.4000000E+00 -0.6172519E-04  0.7063062E-04  0.4975110E+05  0.6300124E+05  0.4328716E-04  0.3858760E-04  0.7738090E+05  0.3586380E+05  0.1604723E-03 -0.1256934E-03 -0.4874083E-09  0.1707284E-09
  0.5000000E+00 -0.6172519E-04  0.5733703E-04  0.4975110E+05  0.3423354E+05  0.4328716E-04  0.4199098E-04  0.7738090E+05  0.3247104E+05  0.1604723E-03 -0.9912167E-04 -0.4874083E-09  0.3840977E-08
  0.6000000E+00 -0.6172519E-04  0.3959232E-04  0.4975110E+05  0.5516873E+04  0.4328716E-04  0.4295200E-04  0.7738090E+05  0.2732977E+05  0.1604723E-03 -0.7004536E-04 -0.4874083E-09  0.6990077E-08
  0.7000000E+00 -0.6172519E-04  0.1754359E-04  0.4975110E+05 -0.2071266E+05  0.4328716E-04  0.4045671E-04  0.7738090E+05  0.2030968E+05  0.1604723E-03 -0.3989209E-04 -0.4874083E-09  0.9145608E-08
  0.8000000E+00 -0.6172519E-04 -0.8016823E-05  0.4975110E+05 -0.4254796E+05  0.4328716E-04  0.3393024E-04  0.7738090E+05  0.1154180E+05  0.1604723E-03 -0.9923207E-05 -0.4874083E-09  0.9981401E-08
  0.9000000E+00 -0.6172519E-04 -0.3564094E-04  0.4975110E+05 -0.5879055E+05  0.4328716E-04  0.2335532E-04  0.7738090E+05  0.1435622E+04  0.1604723E-03  0.1885418E-04 -0.4874083E-09  0.9366901E-08
  0.1000000E+01 -0.6172519E-04 -0.6334274E-04  0.4975110E+05 -0.6901080E+05  0.4328716E-04  0.9307703E-05  0.7738090E+05 -0.9355876E+04  0.1604723E-03  0.4572511E-04 -0.4874083E-09  0.7387722E-08
  0.1100000E+01 -0.6172519E-04 -0.8882702E-04  0.4975110E+05 -0.7348954E+05  0.4328716E-04 -0.7097972E-05  0.7738090E+05 -0.2001763E+05  0.1604723E-03  0.7025264E-04 -0.4874083E-09  0.4333873E-08
  0.1200000E+01 -0.6172519E-04 -0.1097906E-03  0.4975110E+05 -0.7306223E+05  0.4328716E-04 -0.2434452E-04  0.7738090E+05 -0.2968535E+05  0.1604723E-03  0.9221791E-04 -0.4874083E-09  0.6570494E-09
  0.1300000E+01 -0.6172519E-04 -0.1242423E-03  0.4975110E+05 -0.6890205E+05  0.4328716E-04 -0.4071129E-04  0.7738090E+05 -0.3756902E+05  0.1604723E-03  0.1115295E-03 -0.4874083E-09 -0.3096993E-08
  0.1400000E+01 -0.6172519E-04 -0.1307812E-03  0.4975110E+05 -0.6228537E+05  0.4328716E-04 -0.5450696E-04  0.7738090E+05 -0.4306484E+05  0.1604723E-03  0.1281207E-03 -0.4874083E-09 -0.6371050E-08
  0.1500000E+01 -0.6172519E-04 -0.1287848E-03  0.4975110E+05 -0.5438214E+05  0.4328716E-04 -0.6430155E-04  0.7738090E+05 -0.4583541E+05  0.1604723E-03  0.1418561E-03 -0.4874083E-09 -0.8681529E-08
  0.1600000E+01 -0.6172519E-04 -0.1184704E-03  0.4975110E+05 -0.4610477E+05  0.4328716E-04 -0.6912387E-04  0.7738090E+05 -0.4584528E+05  0.1604723E-03  0.1524665E-03 -0.4874083E-09 -0.9692841E-08
  0.1700000E+01 -0.6172519E-04 -0.1008243E-03  0.4975110E+05 -0.3803395E+05  0.4328716E-04 -0.6859504E-04  0.7738090E+05 -0.4334709E+05  0.1604723E-03  0.1595270E-03 -0.4874083E-09 -0.9269405E-08
  0.1800000E+01 -0.6172519E-04 -0.7741515E-04  0.4975110E+05 -0.3042382E+05  0.4328716E-04 -0.6297882E-04  0.7738090E+05 -0.3882355E+05  0.1604723E-03  0.1624817E-03 -0.4874083E-09 -0.7496795E-08
  0.1900000E+01 -0.6172519E-04 -0.5013363E-04  0.4975110E+05 -0.2327253E+05  0.4328716E-04 -0.5314139E-04  0.7738090E+05 -0.3289811E+05  0.1604723E-03  0.1607163E-03 -0.4874083E-09 -0.4668318E-08
  0.2000000E+01 -0.6172519E-04 -0.2091400E-04  0.4975110E+05 -0.1643314E+05  0.4328716E-04 -0.4042646E-04  0.7738090E+05 -0.2623246E+05  0.1604723E-03  0.1536638E-03 -0.4874083E-09 -0.1238754E-08
  0.2100000E+01 -0.6172519E-04  0.8504814E-05  0.4975110E+05 -0.9734501E+04  0.4328716E-04 -0.2646444E-04  0.7738090E+05 -0.1943021E+05  0.1604723E-03  0.1409271E-03 -0.4874083E-09  0.2247632E-08
  0.2200000E+01 -0.6172519E-04  0.3673166E-04  0.4975110E+05 -0.3083389E+04  0.4328716E-04 -0.1294353E-04  0.7738090E+05 -0.1296335E+05  0.1604723E-03  0.1223982E-03 -0.4874083E-09  0.5243509E-08
  0.2300000E+01 -0.6172519E-04  0.6276216E-04  0.4975110E+05  0.3473587E+04  0.4328716E-04 -0.1375883E-05  0.7738090E+05 -0.7132675E+04  0.1604723E-03  0.9834990E-04 -0.4874083E-09  0.7285550E-08
  0.2400000E+01 -0.6172519E-04  0.8590559E-04  0.4975110E+05  0.9738156E+04  0.4328716E-04  0.7106751E-05  0.7738090E+05 -0.2065440E+04  0.1604723E-03  0.6948617E-04 -0.4874083E-09  0.8067913E-08
  0.2500000E+01 -0.6172519E-04  0.1056299E-03  0.4975110E+05  0.1539616E+05  0.4328716E-04  0.1189904E-04  0.7738090E+05  0.2253993E+04  0.1604723E-03  0.3693666E-04 -0.4874083E-09  0.7490305E-08
  0.2600000E+01 -0.6172519E-04  0.1213746E-03  0.4975110E+05  0.2008793E+05  0.4328716E-04  0.1298886E-04  0.7738090E+05  0.5931192E+04  0.1604723E-03  0.2193855E-05 -0.4874083E-09  0.5672609E-08
  0.2700000E+01 -0.6172519E-04  0.1323933E-03  0.4975110E+05  0.2349297E+05  0.4328716E-04  0.1093592E-04  0.7738090E+05  0.9100276E+04  0.1604723E-03 -0.3299955E-04 -0.4874083E-09  0.2933719E-08
  0.2800000E+01 -0.6172519E-04  0.1376859E-03  0.4975110E+05  0.2540698E+05  0.4328716E-04  0.6766405E-05  0.7738090E+05  0.1186888E+05  0.1604723E-03 -0.6680148E-04 -0.4874083E-09 -0.2619019E-09
  0.2900000E+01 -0.6172519E-04  0.1360558E-03  0.4975110E+05  0.2579261E+05  0.4328716E-04  0.1799724E-05  0.7738090E+05  0.1428089E+05  0.1604723E-03 -0.9743740E-04 -0.4874083E-09 -0.3381091E-08
  0.3000000E+01 -0.6172519E-04  0.1263054E-03  0.4975110E+05  0.2479273E+05  0.4328716E-04 -0.2566162E-05  0.7738090E+05  0.1630373E+05  0.1604723E-03 -0.1233618E-03 -0.4874083E-09 -0.5909409E-08
  0.3100000E+01 -0.6172519E-04  0.1075428E-03  0.4975110E+05  0.2270444E+05  0.4328716E-04 -0.5078800E-05  0.7738090E+05  0.1784067E+05  0.1604723E-03 -0.1433943E-03 -0.4874083E-09 -0.7434767E-08
  0.3200000E+01 -0.6172519E-04  0.7954202E-04  0.4975110E+05  0.1992108E+05  0.4328716E-04 -0.4831403E-05  0.7738090E+05  0.1876269E+05  0.1604723E-03 -0.1568097E-03 -0.4874083E-09 -0.7713399E-08
  0.3300000E+01 -0.6172519E-04  0.4307524E-04  0.4975110E+05  0.1685691E+05  0.4328716E-04 -0.1408984E-05  0.7738090E+05  0.1895072E+05  0.1604723E-03 -0.1633759E-03 -0.4874083E-09 -0.6707550E-08
  0.3400000E+01 -0.6172519E-04  0.1304504E-06  0.4975110E+05  0.1387209E+05  0.4328716E-04  0.5041342E-05  0.7738090E+05  0.1833668E+05  0.1604723E-03 -0.1633321E-03 -0.4874083E-09 -0.4588991E-08
  0.3500000E+01 -0.6172519E-04 -0.4606134E-04  0.4975110E+05  0.1121471E+05  0.4328716E-04  0.1382618E-04  0.7738090E+05  0.1693324E+05  0.1604723E-03 -0.1573169E-03 -0.4874083E-09 -0.1708353E-08
  0.3600000E+01 -0.6172519E-04 -0.9123564E-04  0.4975110E+05  0.8991636E+04  0.4328716E-04  0.2380618E-04  0.7738090E+05  0.1484511E+05  0.1604723E-03 -0.1462558E-03 -0.4874083E-09  0.1464176E-08
  0.3700000E+01 -0.6172519E-04 -0.1305392E-03  0.4975110E+05  0.7172947E+04  0.4328716E-04  0.3356567E-04  0.7738090E+05  0.1225943E+05  0.1604723E-03 -0.1312278E-03 -0.4874083E-09  0.4416462E-08
  0.3800000E+01 -0.6172519E-04 -0.1591637E-03  0.4975110E+05  0.5626440E+04  0.4328716E-04  0.4162713E-04  0.7738090E+05  0.9417864E+04  0.1604723E-03 -0.1133277E-03 -0.4874083E-09  0.6677391E-08
  0.3900000E+01 -0.6172519E-04 -0.1730754E-03  0.4975110E+05  0.4172253E+04  0.4328716E-04  0.4667791E-04  0.7738090E+05  0.6576944E+04  0.1604723E-03 -0.9354659E-04 -0.4874083E-09  0.7891420E-08
  0.4000000E+01 -0.6172519E-04 -0.1697165E-03  0.4975110E+05  0.2643330E+04  0.4328716E-04  0.4777579E-04  0.7738090E+05  0.3965997E+04  0.1604723E-03 -0.7268464E-04 -0.4874083E-09  0.7873051E-08
  0.4100000E+01 -0.6172519E-04 -0.1485501E-03  0.4975110E+05  0.9370666E+03  0.4328716E-04  0.4450205E-04  0.7738090E+05  0.1751702E+04  0.1604723E-03 -0.5130599E-04 -0.4874083E-09  0.6632899E-08
  0.4200000E+01 -0.6172519E-04 -0.1113302E-03  0.4975110E+05 -0.9536600E+03  0.4328716E-04  0.3703834E-04  0.7738090E+05  0.1686833E+02  0.1604723E-03 -0.2974162E-04 -0.4874083E-09  0.4372062E-08
  0.4300000E+01 -0.6172519E-04 -0.6202872E-04  0.4975110E+05 -0.2936346E+04  0.4328716E-04  0.2615517E-04  0.7738090E+05 -0.1242749E+04  0.1604723E-03 -0.8136615E-05 -0.4874083E-09  0.1446837E-08
  0.4400000E+01 -0.6172519E-04 -0.6396594E-05  0.4975110E+05 -0.4841261E+04  0.4328716E-04  0.1311198E-04  0.7738090E+05 -0.2104033E+04  0.1604723E-03  0.1346962E-04 -0.4874083E-09 -0.1689834E-08
  0.4500000E+01 -0.6172519E-04  0.4878399E-04  0.4975110E+05 -0.6463476E+04  0.4328716E-04 -0.5165282E-06  0.7738090E+05 -0.2688527E+04  0.1604723E-03  0.3504106E-04 -0.4874083E-09 -0.4559941E-08
  0.4600000E+01 -0.6172519E-04  0.9665305E-04  0.4975110E+05 -0.7613736E+04  0.4328716E-04 -0.1306355E-04  0.7738090E+05 -0.3128172E+04  0.1604723E-03  0.5644202E-04 -0.4874083E-09 -0.6733492E-08
  0.4700000E+01 -0.6172519E-04  0.1312771E-03  0.4975110E+05 -0.8165054E+04  0.4328716E-04 -0.2301023E-04  0.7738090E+05 -0.3532634E+04  0.1604723E-03  0.7735030E-04 -0.4874083E-09 -0.7891983E-08
  0.4800000E+01 -0.6172519E-04  0.1485368E-03  0.4975110E+05 -0.8084145E+04  0.4328716E-04 -0.2920613E-04  0.7738090E+05 -0.3965537E+04  0.1604723E-03  0.9720305E-04 -0.4874083E-09 -0.7872784E-08
  0.4900000E+01 -0.6172519E-04  0.1467472E-03  0.4975110E+05 -0.7440486E+04  0.4328716E-04 -0.3103809E-04  0.7738090E+05 -0.4434165E+04  0.1604723E-03  0.1151893E-03 -0.4874083E-09 -0.6688927E-08
  0.5000000E+01 -0.6172519E-04  0.1268940E-03  0.4975110E+05 -0.6391436E+04  0.4328716E-04 -0.2852085E-04  0.7738090E+05 -0.4894171E+04  0.1604723E-03  0.1302938E-03 -0.4874083E-09 -0.4522375E-08