VARIABLES="X" "Y" "Z" "NX" "NY" "NZ" "A"
 ZONE N=         378 , E=         154  , F=FEPOINT,ET=QUADRILATERAL
   0.4955329E+01   0.2386361E+01  -0.3750000E+01   0.0000000E+00   0.0000000E+00   0.0000000E+00   0.0000000E+00
   0.4955329E+01   0.2386361E+01  -0.3062500E+01   0.0000000E+00   0.0000000E+00   0.0000000E+00   0.0000000E+00
   0.4955329E+01   0.2386361E+01  -0.2375000E+01   0.0000000E+00   0.0000000E+00   0.0000000E+00   0.0000000E+00
   0.5227664E+01   0.1193180E+01  -0.3750000E+01   0.0000000E+00   0.0000000E+00   0.0000000E+00   0.0000000E+00
   0.5227664E+01   0.1193180E+01  -0.3062500E+01   0.0000000E+00   0.0000000E+00   0.0000000E+00   0.0000000E+00
   0.5227664E+01   0.1193180E+01  -0.2375000E+01   0.0000000E+00   0.0000000E+00   0.0000000E+00   0.0000000E+00
   0.5500000E+01   0.0000000E+00  -0.3750000E+01   0.0000000E+00   0.0000000E+00   0.0000000E+00   0.0000000E+00
   0.5500000E+01   0.0000000E+00  -0.3062500E+01   0.0000000E+00   0.0000000E+00   0.0000000E+00   0.0000000E+00
   0.5500000E+01   0.0000000E+00  -0.2375000E+01   0.0000000E+00   0.0000000E+00   0.0000000E+00   0.0000000E+00
   0.4955329E+01   0.2386361E+01  -0.2375000E+01   0.0000000E+00   0.0000000E+00   0.0000000E+00   0.0000000E+00
   0.4955329E+01   0.2386361E+01  -0.1687500E+01   0.0000000E+00   0.0000000E+00   0.0000000E+00   0.0000000E+00
   0.4955329E+01   0.2386361E+01  -0.1000000E+01   0.0000000E+00   0.0000000E+00   0.0000000E+00   0.0000000E+00
   0.5227664E+01   0.1193180E+01  -0.2375000E+01   0.0000000E+00   0.0000000E+00   0.0000000E+00   0.0000000E+00
   0.5227664E+01   0.1193180E+01  -0.1687500E+01   0.0000000E+00   0.0000000E+00   0.0000000E+00   0.0000000E+00
   0.5227664E+01   0.1193180E+01  -0.1000000E+01   0.0000000E+00   0.0000000E+00   0.0000000E+00   0.0000000E+00
   0.5500000E+01   0.0000000E+00  -0.2375000E+01   0.0000000E+00   0.0000000E+00   0.0000000E+00   0.0000000E+00
   0.5500000E+01   0.0000000E+00  -0.1687500E+01   0.0000000E+00   0.0000000E+00   0.0000000E+00   0.0000000E+00
   0.5500000E+01   0.0000000E+00  -0.1000000E+01   0.0000000E+00   0.0000000E+00   0.0000000E+00   0.0000000E+00
   0.4955329E+01   0.2386361E+01  -0.1000000E+01   0.0000000E+00   0.0000000E+00   0.0000000E+00   0.0000000E+00
   0.4955329E+01   0.2386361E+01   0.0000000E+00   0.0000000E+00   0.0000000E+00   0.0000000E+00   0.0000000E+00
   0.5227664E+01   0.1193180E+01  -0.1000000E+01   0.0000000E+00   0.0000000E+00   0.0000000E+00   0.0000000E+00
   0.5227664E+01   0.1193180E+01   0.0000000E+00   0.0000000E+00   0.0000000E+00   0.0000000E+00   0.0000000E+00
   0.5500000E+01   0.0000000E+00  -0.1000000E+01   0.0000000E+00   0.0000000E+00   0.0000000E+00   0.0000000E+00
   0.5500000E+01   0.0000000E+00   0.0000000E+00   0.0000000E+00   0.0000000E+00   0.0000000E+00   0.0000000E+00
   0.3429194E+01   0.4300073E+01  -0.3750000E+01   0.0000000E+00   0.0000000E+00   0.0000000E+00   0.0000000E+00
   0.3429194E+01   0.4300073E+01  -0.3062500E+01   0.0000000E+00   0.0000000E+00   0.0000000E+00   0.0000000E+00
   0.3429194E+01   0.4300073E+01  -0.2375000E+01   0.0000000E+00   0.0000000E+00   0.0000000E+00   0.0000000E+00
   0.4192262E+01   0.3343217E+01  -0.3750000E+01   0.0000000E+00   0.0000000E+00   0.0000000E+00   0.0000000E+00
   0.4192262E+01   0.3343217E+01  -0.3062500E+01   0.0000000E+00   0.0000000E+00   0.0000000E+00   0.0000000E+00
   0.4192262E+01   0.3343217E+01  -0.2375000E+01   0.0000000E+00   0.0000000E+00   0.0000000E+00   0.0000000E+00
   0.4955329E+01   0.2386361E+01  -0.3750000E+01   0.0000000E+00   0.0000000E+00   0.0000000E+00   0.0000000E+00
   0.4955329E+01   0.2386361E+01  -0.3062500E+01   0.0000000E+00   0.0000000E+00   0.0000000E+00   0.0000000E+00
   0.4955329E+01   0.2386361E+01  -0.2375000E+01   0.0000000E+00   0.0000000E+00   0.0000000E+00   0.0000000E+00
   0.3429194E+01   0.4300073E+01  -0.2375000E+01   0.0000000E+00   0.0000000E+00   0.0000000E+00   0.0000000E+00
   0.3429194E+01   0.4300073E+01  -0.1687500E+01   0.0000000E+00   0.0000000E+00   0.0000000E+00   0.0000000E+00
   0.3429194E+01   0.4300073E+01  -0.1000000E+01   0.0000000E+00   0.0000000E+00   0.0000000E+00   0.0000000E+00
   0.4192262E+01   0.3343217E+01  -0.2375000E+01   0.0000000E+00   0.0000000E+00   0.0000000E+00   0.0000000E+00
   0.4192262E+01   0.3343217E+01  -0.1687500E+01   0.0000000E+00   0.0000000E+00   0.0000000E+00   0.0000000E+00
   0.4192262E+01   0.3343217E+01  -0.1000000E+01   0.0000000E+00   0.0000000E+00   0.0000000E+00   0.0000000E+00
   0.4955329E+01   0.2386361E+01  -0.2375000E+01   0.0000000E+00   0.0000000E+00   0.0000000E+00   0.0000000E+00
   0.4955329E+01   0.2386361E+01  -0.1687500E+01   0.0000000E+00   0.0000000E+00   0.0000000E+00   0.0000000E+00
   0.4955329E+01   0.2386361E+01  -0.1000000E+01   0.0000000E+00   0.0000000E+00   0.0000000E+00   0.0000000E+00
   0.3429194E+01   0.4300073E+01  -0.1000000E+01   0.0000000E+00   0.0000000E+00   0.0000000E+00   0.0000000E+00
   0.3429194E+01   0.4300073E+01   0.0000000E+00   0.0000000E+00   0.0000000E+00   0.0000000E+00   0.0000000E+00
   0.4192262E+01   0.3343217E+01  -0.1000000E+01   0.0000000E+00   0.0000000E+00   0.0000000E+00   0.0000000E+00
   0.4192262E+01   0.3343217E+01   0.0000000E+00   0.0000000E+00   0.0000000E+00   0.0000000E+00   0.0000000E+00
   0.4955329E+01   0.2386361E+01  -0.1000000E+01   0.0000000E+00   0.0000000E+00   0.0000000E+00   0.0000000E+00
   0.4955329E+01   0.2386361E+01   0.0000000E+00   0.0000000E+00   0.0000000E+00   0.0000000E+00   0.0000000E+00
   0.1223865E+01   0.5362104E+01  -0.3750000E+01   0.0000000E+00   0.0000000E+00   0.0000000E+00   0.0000000E+00
   0.1223865E+01   0.5362104E+01  -0.3062500E+01   0.0000000E+00   0.0000000E+00   0.0000000E+00   0.0000000E+00
   0.1223865E+01   0.5362104E+01  -0.2375000E+01   0.0000000E+00   0.0000000E+00   0.0000000E+00   0.0000000E+00
   0.2326530E+01   0.4831089E+01  -0.3750000E+01   0.0000000E+00   0.0000000E+00   0.0000000E+00   0.0000000E+00
   0.2326530E+01   0.4831089E+01  -0.3062500E+01   0.0000000E+00   0.0000000E+00   0.0000000E+00   0.0000000E+00
   0.2326530E+01   0.4831089E+01  -0.2375000E+01   0.0000000E+00   0.0000000E+00   0.0000000E+00   0.0000000E+00
   0.3429194E+01   0.4300073E+01  -0.3750000E+01   0.0000000E+00   0.0000000E+00   0.0000000E+00   0.0000000E+00
   0.3429194E+01   0.4300073E+01  -0.3062500E+01   0.0000000E+00   0.0000000E+00   0.0000000E+00   0.0000000E+00
   0.3429194E+01   0.4300073E+01  -0.2375000E+01   0.0000000E+00   0.0000000E+00   0.0000000E+00   0.0000000E+00
   0.1223865E+01   0.5362104E+01  -0.2375000E+01   0.0000000E+00   0.0000000E+00   0.0000000E+00   0.0000000E+00
   0.1223865E+01   0.5362104E+01  -0.1687500E+01   0.0000000E+00   0.0000000E+00   0.0000000E+00   0.0000000E+00
   0.1223865E+01   0.5362104E+01  -0.1000000E+01   0.0000000E+00   0.0000000E+00   0.0000000E+00   0.0000000E+00
   0.2326530E+01   0.4831089E+01  -0.2375000E+01   0.0000000E+00   0.0000000E+00   0.0000000E+00   0.0000000E+00
   0.2326530E+01   0.4831089E+01  -0.1687500E+01   0.0000000E+00   0.0000000E+00   0.0000000E+00   0.0000000E+00
   0.2326530E+01   0.4831089E+01  -0.1000000E+01   0.0000000E+00   0.0000000E+00   0.0000000E+00   0.0000000E+00
   0.3429194E+01   0.4300073E+01  -0.2375000E+01   0.0000000E+00   0.0000000E+00   0.0000000E+00   0.0000000E+00
   0.3429194E+01   0.4300073E+01  -0.1687500E+01   0.0000000E+00   0.0000000E+00   0.0000000E+00   0.0000000E+00
   0.3429194E+01   0.4300073E+01  -0.1000000E+01   0.0000000E+00   0.0000000E+00   0.0000000E+00   0.0000000E+00
   0.1223865E+01   0.5362104E+01  -0.1000000E+01   0.0000000E+00   0.0000000E+00   0.0000000E+00   0.0000000E+00
   0.1223865E+01   0.5362104E+01   0.0000000E+00   0.0000000E+00   0.0000000E+00   0.0000000E+00   0.0000000E+00
   0.2326530E+01   0.4831089E+01  -0.1000000E+01   0.0000000E+00   0.0000000E+00   0.0000000E+00   0.0000000E+00
   0.2326530E+01   0.4831089E+01   0.0000000E+00   0.0000000E+00   0.0000000E+00   0.0000000E+00   0.0000000E+00
   0.3429194E+01   0.4300073E+01  -0.1000000E+01   0.0000000E+00   0.0000000E+00   0.0000000E+00   0.0000000E+00
   0.3429194E+01   0.4300073E+01   0.0000000E+00   0.0000000E+00   0.0000000E+00   0.0000000E+00   0.0000000E+00
  -0.1223865E+01   0.5362104E+01  -0.3750000E+01   0.0000000E+00   0.0000000E+00   0.0000000E+00   0.0000000E+00
  -0.1223865E+01   0.5362104E+01  -0.3062500E+01   0.0000000E+00   0.0000000E+00   0.0000000E+00   0.0000000E+00
  -0.1223865E+01   0.5362104E+01  -0.2375000E+01   0.0000000E+00   0.0000000E+00   0.0000000E+00   0.0000000E+00
   0.0000000E+00   0.5362104E+01  -0.3750000E+01   0.0000000E+00   0.0000000E+00   0.0000000E+00   0.0000000E+00
   0.0000000E+00   0.5362104E+01  -0.3062500E+01   0.0000000E+00   0.0000000E+00   0.0000000E+00   0.0000000E+00
   0.0000000E+00   0.5362104E+01  -0.2375000E+01   0.0000000E+00   0.0000000E+00   0.0000000E+00   0.0000000E+00
   0.1223865E+01   0.5362104E+01  -0.3750000E+01   0.0000000E+00   0.0000000E+00   0.0000000E+00   0.0000000E+00
   0.1223865E+01   0.5362104E+01  -0.3062500E+01   0.0000000E+00   0.0000000E+00   0.0000000E+00   0.0000000E+00
   0.1223865E+01   0.5362104E+01  -0.2375000E+01   0.0000000E+00   0.0000000E+00   0.0000000E+00   0.0000000E+00
  -0.1223865E+01   0.5362104E+01  -0.2375000E+01   0.0000000E+00   0.0000000E+00   0.0000000E+00   0.0000000E+00
  -0.1223865E+01   0.5362104E+01  -0.1687500E+01   0.0000000E+00   0.0000000E+00   0.0000000E+00   0.0000000E+00
  -0.1223865E+01   0.5362104E+01  -0.1000000E+01   0.0000000E+00   0.0000000E+00   0.0000000E+00   0.0000000E+00
   0.0000000E+00   0.5362104E+01  -0.2375000E+01   0.0000000E+00   0.0000000E+00   0.0000000E+00   0.0000000E+00
   0.0000000E+00   0.5362104E+01  -0.1687500E+01   0.0000000E+00   0.0000000E+00   0.0000000E+00   0.0000000E+00
   0.0000000E+00   0.5362104E+01  -0.1000000E+01   0.0000000E+00   0.0000000E+00   0.0000000E+00   0.0000000E+00
   0.1223865E+01   0.5362104E+01  -0.2375000E+01   0.0000000E+00   0.0000000E+00   0.0000000E+00   0.0000000E+00
   0.1223865E+01   0.5362104E+01  -0.1687500E+01   0.0000000E+00   0.0000000E+00   0.0000000E+00   0.0000000E+00
   0.1223865E+01   0.5362104E+01  -0.1000000E+01   0.0000000E+00   0.0000000E+00   0.0000000E+00   0.0000000E+00
  -0.1223865E+01   0.5362104E+01  -0.1000000E+01   0.0000000E+00   0.0000000E+00   0.0000000E+00   0.0000000E+00
  -0.1223865E+01   0.5362104E+01   0.0000000E+00   0.0000000E+00   0.0000000E+00   0.0000000E+00   0.0000000E+00
   0.0000000E+00   0.5362104E+01  -0.1000000E+01   0.0000000E+00   0.0000000E+00   0.0000000E+00   0.0000000E+00
   0.0000000E+00   0.5362104E+01   0.0000000E+00   0.0000000E+00   0.0000000E+00   0.0000000E+00   0.0000000E+00
   0.1223865E+01   0.5362104E+01  -0.1000000E+01   0.0000000E+00   0.0000000E+00   0.0000000E+00   0.0000000E+00
   0.1223865E+01   0.5362104E+01   0.0000000E+00   0.0000000E+00   0.0000000E+00   0.0000000E+00   0.0000000E+00
  -0.3429194E+01   0.4300073E+01  -0.3750000E+01   0.0000000E+00   0.0000000E+00   0.0000000E+00   0.0000000E+00
  -0.3429194E+01   0.4300073E+01  -0.3062500E+01   0.0000000E+00   0.0000000E+00   0.0000000E+00   0.0000000E+00
  -0.3429194E+01   0.4300073E+01  -0.2375000E+01   0.0000000E+00   0.0000000E+00   0.0000000E+00   0.0000000E+00
  -0.2326530E+01   0.4831089E+01  -0.3750000E+01   0.0000000E+00   0.0000000E+00   0.0000000E+00   0.0000000E+00
  -0.2326530E+01   0.4831089E+01  -0.3062500E+01   0.0000000E+00   0.0000000E+00   0.0000000E+00   0.0000000E+00
  -0.2326530E+01   0.4831089E+01  -0.2375000E+01   0.0000000E+00   0.0000000E+00   0.0000000E+00   0.0000000E+00
  -0.1223865E+01   0.5362104E+01  -0.3750000E+01   0.0000000E+00   0.0000000E+00   0.0000000E+00   0.0000000E+00
  -0.1223865E+01   0.5362104E+01  -0.3062500E+01   0.0000000E+00   0.0000000E+00   0.0000000E+00   0.0000000E+00
  -0.1223865E+01   0.5362104E+01  -0.2375000E+01   0.0000000E+00   0.0000000E+00   0.0000000E+00   0.0000000E+00
  -0.3429194E+01   0.4300073E+01  -0.2375000E+01   0.0000000E+00   0.0000000E+00   0.0000000E+00   0.0000000E+00
  -0.3429194E+01   0.4300073E+01  -0.1687500E+01   0.0000000E+00   0.0000000E+00   0.0000000E+00   0.0000000E+00
  -0.3429194E+01   0.4300073E+01  -0.1000000E+01   0.0000000E+00   0.0000000E+00   0.0000000E+00   0.0000000E+00
  -0.2326530E+01   0.4831089E+01  -0.2375000E+01   0.0000000E+00   0.0000000E+00   0.0000000E+00   0.0000000E+00
  -0.2326530E+01   0.4831089E+01  -0.1687500E+01   0.0000000E+00   0.0000000E+00   0.0000000E+00   0.0000000E+00
  -0.2326530E+01   0.4831089E+01  -0.1000000E+01   0.0000000E+00   0.0000000E+00   0.0000000E+00   0.0000000E+00
  -0.1223865E+01   0.5362104E+01  -0.2375000E+01   0.0000000E+00   0.0000000E+00   0.0000000E+00   0.0000000E+00
  -0.1223865E+01   0.5362104E+01  -0.1687500E+01   0.0000000E+00   0.0000000E+00   0.0000000E+00   0.0000000E+00
  -0.1223865E+01   0.5362104E+01  -0.1000000E+01   0.0000000E+00   0.0000000E+00   0.0000000E+00   0.0000000E+00
  -0.3429194E+01   0.4300073E+01  -0.1000000E+01   0.0000000E+00   0.0000000E+00   0.0000000E+00   0.0000000E+00
  -0.3429194E+01   0.4300073E+01   0.0000000E+00   0.0000000E+00   0.0000000E+00   0.0000000E+00   0.0000000E+00
  -0.2326530E+01   0.4831089E+01  -0.1000000E+01   0.0000000E+00   0.0000000E+00   0.0000000E+00   0.0000000E+00
  -0.2326530E+01   0.4831089E+01   0.0000000E+00   0.0000000E+00   0.0000000E+00   0.0000000E+00   0.0000000E+00
  -0.1223865E+01   0.5362104E+01  -0.1000000E+01   0.0000000E+00   0.0000000E+00   0.0000000E+00   0.0000000E+00
  -0.1223865E+01   0.5362104E+01   0.0000000E+00   0.0000000E+00   0.0000000E+00   0.0000000E+00   0.0000000E+00
  -0.4955329E+01   0.2386361E+01  -0.3750000E+01   0.0000000E+00   0.0000000E+00   0.0000000E+00   0.0000000E+00
  -0.4955329E+01   0.2386361E+01  -0.3062500E+01   0.0000000E+00   0.0000000E+00   0.0000000E+00   0.0000000E+00
  -0.4955329E+01   0.2386361E+01  -0.2375000E+01   0.0000000E+00   0.0000000E+00   0.0000000E+00   0.0000000E+00
  -0.4192262E+01   0.3343217E+01  -0.3750000E+01   0.0000000E+00   0.0000000E+00   0.0000000E+00   0.0000000E+00
  -0.4192262E+01   0.3343217E+01  -0.3062500E+01   0.0000000E+00   0.0000000E+00   0.0000000E+00   0.0000000E+00
  -0.4192262E+01   0.3343217E+01  -0.2375000E+01   0.0000000E+00   0.0000000E+00   0.0000000E+00   0.0000000E+00
  -0.3429194E+01   0.4300073E+01  -0.3750000E+01   0.0000000E+00   0.0000000E+00   0.0000000E+00   0.0000000E+00
  -0.3429194E+01   0.4300073E+01  -0.3062500E+01   0.0000000E+00   0.0000000E+00   0.0000000E+00   0.0000000E+00
  -0.3429194E+01   0.4300073E+01  -0.2375000E+01   0.0000000E+00   0.0000000E+00   0.0000000E+00   0.0000000E+00
  -0.4955329E+01   0.2386361E+01  -0.2375000E+01   0.0000000E+00   0.0000000E+00   0.0000000E+00   0.0000000E+00
  -0.4955329E+01   0.2386361E+01  -0.1687500E+01   0.0000000E+00   0.0000000E+00   0.0000000E+00   0.0000000E+00
  -0.4955329E+01   0.2386361E+01  -0.1000000E+01   0.0000000E+00   0.0000000E+00   0.0000000E+00   0.0000000E+00
  -0.4192262E+01   0.3343217E+01  -0.2375000E+01   0.0000000E+00   0.0000000E+00   0.0000000E+00   0.0000000E+00
  -0.4192262E+01   0.3343217E+01  -0.1687500E+01   0.0000000E+00   0.0000000E+00   0.0000000E+00   0.0000000E+00
  -0.4192262E+01   0.3343217E+01  -0.1000000E+01   0.0000000E+00   0.0000000E+00   0.0000000E+00   0.0000000E+00
  -0.3429194E+01   0.4300073E+01  -0.2375000E+01   0.0000000E+00   0.0000000E+00   0.0000000E+00   0.0000000E+00
  -0.3429194E+01   0.4300073E+01  -0.1687500E+01   0.0000000E+00   0.0000000E+00   0.0000000E+00   0.0000000E+00
  -0.3429194E+01   0.4300073E+01  -0.1000000E+01   0.0000000E+00   0.0000000E+00   0.0000000E+00   0.0000000E+00
  -0.4955329E+01   0.2386361E+01  -0.1000000E+01   0.0000000E+00   0.0000000E+00   0.0000000E+00   0.0000000E+00
  -0.4955329E+01   0.2386361E+01   0.0000000E+00   0.0000000E+00   0.0000000E+00   0.0000000E+00   0.0000000E+00
  -0.4192262E+01   0.3343217E+01  -0.1000000E+01   0.0000000E+00   0.0000000E+00   0.0000000E+00   0.0000000E+00
  -0.4192262E+01   0.3343217E+01   0.0000000E+00   0.0000000E+00   0.0000000E+00   0.0000000E+00   0.0000000E+00
  -0.3429194E+01   0.4300073E+01  -0.1000000E+01   0.0000000E+00   0.0000000E+00   0.0000000E+00   0.0000000E+00
  -0.3429194E+01   0.4300073E+01   0.0000000E+00   0.0000000E+00   0.0000000E+00   0.0000000E+00   0.0000000E+00
  -0.5500000E+01   0.0000000E+00  -0.3750000E+01   0.0000000E+00   0.0000000E+00   0.0000000E+00   0.0000000E+00
  -0.5500000E+01   0.0000000E+00  -0.3062500E+01   0.0000000E+00   0.0000000E+00   0.0000000E+00   0.0000000E+00
  -0.5500000E+01   0.0000000E+00  -0.2375000E+01   0.0000000E+00   0.0000000E+00   0.0000000E+00   0.0000000E+00
  -0.5227664E+01   0.1193180E+01  -0.3750000E+01   0.0000000E+00   0.0000000E+00   0.0000000E+00   0.0000000E+00
  -0.5227664E+01   0.1193180E+01  -0.3062500E+01   0.0000000E+00   0.0000000E+00   0.0000000E+00   0.0000000E+00
  -0.5227664E+01   0.1193180E+01  -0.2375000E+01   0.0000000E+00   0.0000000E+00   0.0000000E+00   0.0000000E+00
  -0.4955329E+01   0.2386361E+01  -0.3750000E+01   0.0000000E+00   0.0000000E+00   0.0000000E+00   0.0000000E+00
  -0.4955329E+01   0.2386361E+01  -0.3062500E+01   0.0000000E+00   0.0000000E+00   0.0000000E+00   0.0000000E+00
  -0.4955329E+01   0.2386361E+01  -0.2375000E+01   0.0000000E+00   0.0000000E+00   0.0000000E+00   0.0000000E+00
  -0.5500000E+01   0.0000000E+00  -0.2375000E+01   0.0000000E+00   0.0000000E+00   0.0000000E+00   0.0000000E+00
  -0.5500000E+01   0.0000000E+00  -0.1687500E+01   0.0000000E+00   0.0000000E+00   0.0000000E+00   0.0000000E+00
  -0.5500000E+01   0.0000000E+00  -0.1000000E+01   0.0000000E+00   0.0000000E+00   0.0000000E+00   0.0000000E+00
  -0.5227664E+01   0.1193180E+01  -0.2375000E+01   0.0000000E+00   0.0000000E+00   0.0000000E+00   0.0000000E+00
  -0.5227664E+01   0.1193180E+01  -0.1687500E+01   0.0000000E+00   0.0000000E+00   0.0000000E+00   0.0000000E+00
  -0.5227664E+01   0.1193180E+01  -0.1000000E+01   0.0000000E+00   0.0000000E+00   0.0000000E+00   0.0000000E+00
  -0.4955329E+01   0.2386361E+01  -0.2375000E+01   0.0000000E+00   0.0000000E+00   0.0000000E+00   0.0000000E+00
  -0.4955329E+01   0.2386361E+01  -0.1687500E+01   0.0000000E+00   0.0000000E+00   0.0000000E+00   0.0000000E+00
  -0.4955329E+01   0.2386361E+01  -0.1000000E+01   0.0000000E+00   0.0000000E+00   0.0000000E+00   0.0000000E+00
  -0.5500000E+01   0.0000000E+00  -0.1000000E+01   0.0000000E+00   0.0000000E+00   0.0000000E+00   0.0000000E+00
  -0.5500000E+01   0.0000000E+00   0.0000000E+00   0.0000000E+00   0.0000000E+00   0.0000000E+00   0.0000000E+00
  -0.5227664E+01   0.1193180E+01  -0.1000000E+01   0.0000000E+00   0.0000000E+00   0.0000000E+00   0.0000000E+00
  -0.5227664E+01   0.1193180E+01   0.0000000E+00   0.0000000E+00   0.0000000E+00   0.0000000E+00   0.0000000E+00
  -0.4955329E+01   0.2386361E+01  -0.1000000E+01   0.0000000E+00   0.0000000E+00   0.0000000E+00   0.0000000E+00
  -0.4955329E+01   0.2386361E+01   0.0000000E+00   0.0000000E+00   0.0000000E+00   0.0000000E+00   0.0000000E+00
   0.1375000E+01   0.0000000E+00  -0.3750000E+01   0.0000000E+00   0.0000000E+00   0.0000000E+00   0.0000000E+00
   0.6875000E+00   0.0000000E+00  -0.3750000E+01   0.0000000E+00   0.0000000E+00   0.0000000E+00   0.0000000E+00
   0.0000000E+00   0.0000000E+00  -0.3750000E+01   0.0000000E+00   0.0000000E+00   0.0000000E+00   0.0000000E+00
   0.1238832E+01   0.5965901E+00  -0.3750000E+01   0.0000000E+00   0.0000000E+00   0.0000000E+00   0.0000000E+00
   0.6194160E+00   0.2982951E+00  -0.3750000E+01   0.0000000E+00   0.0000000E+00   0.0000000E+00   0.0000000E+00
   0.0000000E+00   0.0000000E+00  -0.3750000E+01   0.0000000E+00   0.0000000E+00   0.0000000E+00   0.0000000E+00
   0.2750000E+01   0.0000000E+00  -0.3750000E+01   0.0000000E+00   0.0000000E+00   0.0000000E+00   0.0000000E+00
   0.2062500E+01   0.0000000E+00  -0.3750000E+01   0.0000000E+00   0.0000000E+00   0.0000000E+00   0.0000000E+00
   0.1375000E+01   0.0000000E+00  -0.3750000E+01   0.0000000E+00   0.0000000E+00   0.0000000E+00   0.0000000E+00
   0.2477664E+01   0.1193180E+01  -0.3750000E+01   0.0000000E+00   0.0000000E+00   0.0000000E+00   0.0000000E+00
   0.1858248E+01   0.8948851E+00  -0.3750000E+01   0.0000000E+00   0.0000000E+00   0.0000000E+00   0.0000000E+00
   0.1238832E+01   0.5965901E+00  -0.3750000E+01   0.0000000E+00   0.0000000E+00   0.0000000E+00   0.0000000E+00
   0.4125000E+01   0.0000000E+00  -0.3750000E+01   0.0000000E+00   0.0000000E+00   0.0000000E+00   0.0000000E+00
   0.3437500E+01   0.0000000E+00  -0.3750000E+01   0.0000000E+00   0.0000000E+00   0.0000000E+00   0.0000000E+00
   0.2750000E+01   0.0000000E+00  -0.3750000E+01   0.0000000E+00   0.0000000E+00   0.0000000E+00   0.0000000E+00
   0.3920748E+01   0.8948850E+00  -0.3750000E+01   0.0000000E+00   0.0000000E+00   0.0000000E+00   0.0000000E+00
   0.3267290E+01   0.7457375E+00  -0.3750000E+01   0.0000000E+00   0.0000000E+00   0.0000000E+00   0.0000000E+00
   0.2613832E+01   0.5965900E+00  -0.3750000E+01   0.0000000E+00   0.0000000E+00   0.0000000E+00   0.0000000E+00
   0.3716497E+01   0.1789770E+01  -0.3750000E+01   0.0000000E+00   0.0000000E+00   0.0000000E+00   0.0000000E+00
   0.3097080E+01   0.1491475E+01  -0.3750000E+01   0.0000000E+00   0.0000000E+00   0.0000000E+00   0.0000000E+00
   0.2477664E+01   0.1193180E+01  -0.3750000E+01   0.0000000E+00   0.0000000E+00   0.0000000E+00   0.0000000E+00
   0.5500000E+01   0.0000000E+00  -0.3750000E+01   0.0000000E+00   0.0000000E+00   0.0000000E+00   0.0000000E+00
   0.4812500E+01   0.0000000E+00  -0.3750000E+01   0.0000000E+00   0.0000000E+00   0.0000000E+00   0.0000000E+00
   0.4125000E+01   0.0000000E+00  -0.3750000E+01   0.0000000E+00   0.0000000E+00   0.0000000E+00   0.0000000E+00
   0.5227664E+01   0.1193180E+01  -0.3750000E+01   0.0000000E+00   0.0000000E+00   0.0000000E+00   0.0000000E+00
   0.4574206E+01   0.1044033E+01  -0.3750000E+01   0.0000000E+00   0.0000000E+00   0.0000000E+00   0.0000000E+00
   0.3920748E+01   0.8948850E+00  -0.3750000E+01   0.0000000E+00   0.0000000E+00   0.0000000E+00   0.0000000E+00
   0.4955329E+01   0.2386361E+01  -0.3750000E+01   0.0000000E+00   0.0000000E+00   0.0000000E+00   0.0000000E+00
   0.4335913E+01   0.2088065E+01  -0.3750000E+01   0.0000000E+00   0.0000000E+00   0.0000000E+00   0.0000000E+00
   0.3716497E+01   0.1789770E+01  -0.3750000E+01   0.0000000E+00   0.0000000E+00   0.0000000E+00   0.0000000E+00
   0.1238832E+01   0.5965901E+00  -0.3750000E+01   0.0000000E+00   0.0000000E+00   0.0000000E+00   0.0000000E+00
   0.6194160E+00   0.2982951E+00  -0.3750000E+01   0.0000000E+00   0.0000000E+00   0.0000000E+00   0.0000000E+00
   0.0000000E+00   0.0000000E+00  -0.3750000E+01   0.0000000E+00   0.0000000E+00   0.0000000E+00   0.0000000E+00
   0.8572985E+00   0.1075018E+01  -0.3750000E+01   0.0000000E+00   0.0000000E+00   0.0000000E+00   0.0000000E+00
   0.4286492E+00   0.5375090E+00  -0.3750000E+01   0.0000000E+00   0.0000000E+00   0.0000000E+00   0.0000000E+00
   0.0000000E+00   0.0000000E+00  -0.3750000E+01   0.0000000E+00   0.0000000E+00   0.0000000E+00   0.0000000E+00
   0.2477664E+01   0.1193180E+01  -0.3750000E+01   0.0000000E+00   0.0000000E+00   0.0000000E+00   0.0000000E+00
   0.1858248E+01   0.8948851E+00  -0.3750000E+01   0.0000000E+00   0.0000000E+00   0.0000000E+00   0.0000000E+00
   0.1238832E+01   0.5965901E+00  -0.3750000E+01   0.0000000E+00   0.0000000E+00   0.0000000E+00   0.0000000E+00
   0.1714597E+01   0.2150037E+01  -0.3750000E+01   0.0000000E+00   0.0000000E+00   0.0000000E+00   0.0000000E+00
   0.1285948E+01   0.1612528E+01  -0.3750000E+01   0.0000000E+00   0.0000000E+00   0.0000000E+00   0.0000000E+00
   0.8572985E+00   0.1075018E+01  -0.3750000E+01   0.0000000E+00   0.0000000E+00   0.0000000E+00   0.0000000E+00
   0.3716497E+01   0.1789770E+01  -0.3750000E+01   0.0000000E+00   0.0000000E+00   0.0000000E+00   0.0000000E+00
   0.3097080E+01   0.1491475E+01  -0.3750000E+01   0.0000000E+00   0.0000000E+00   0.0000000E+00   0.0000000E+00
   0.2477664E+01   0.1193180E+01  -0.3750000E+01   0.0000000E+00   0.0000000E+00   0.0000000E+00   0.0000000E+00
   0.3144196E+01   0.2507412E+01  -0.3750000E+01   0.0000000E+00   0.0000000E+00   0.0000000E+00   0.0000000E+00
   0.2620163E+01   0.2089510E+01  -0.3750000E+01   0.0000000E+00   0.0000000E+00   0.0000000E+00   0.0000000E+00
   0.2096130E+01   0.1671608E+01  -0.3750000E+01   0.0000000E+00   0.0000000E+00   0.0000000E+00   0.0000000E+00
   0.2571895E+01   0.3225055E+01  -0.3750000E+01   0.0000000E+00   0.0000000E+00   0.0000000E+00   0.0000000E+00
   0.2143246E+01   0.2687546E+01  -0.3750000E+01   0.0000000E+00   0.0000000E+00   0.0000000E+00   0.0000000E+00
   0.1714597E+01   0.2150037E+01  -0.3750000E+01   0.0000000E+00   0.0000000E+00   0.0000000E+00   0.0000000E+00
   0.4955329E+01   0.2386361E+01  -0.3750000E+01   0.0000000E+00   0.0000000E+00   0.0000000E+00   0.0000000E+00
   0.4335913E+01   0.2088065E+01  -0.3750000E+01   0.0000000E+00   0.0000000E+00   0.0000000E+00   0.0000000E+00
   0.3716497E+01   0.1789770E+01  -0.3750000E+01   0.0000000E+00   0.0000000E+00   0.0000000E+00   0.0000000E+00
   0.4192262E+01   0.3343217E+01  -0.3750000E+01   0.0000000E+00   0.0000000E+00   0.0000000E+00   0.0000000E+00
   0.3668229E+01   0.2925315E+01  -0.3750000E+01   0.0000000E+00   0.0000000E+00   0.0000000E+00   0.0000000E+00
   0.3144196E+01   0.2507412E+01  -0.3750000E+01   0.0000000E+00   0.0000000E+00   0.0000000E+00   0.0000000E+00
   0.3429194E+01   0.4300073E+01  -0.3750000E+01   0.0000000E+00   0.0000000E+00   0.0000000E+00   0.0000000E+00
   0.3000545E+01   0.3762564E+01  -0.3750000E+01   0.0000000E+00   0.0000000E+00   0.0000000E+00   0.0000000E+00
   0.2571895E+01   0.3225055E+01  -0.3750000E+01   0.0000000E+00   0.0000000E+00   0.0000000E+00   0.0000000E+00
   0.8572985E+00   0.1075018E+01  -0.3750000E+01   0.0000000E+00   0.0000000E+00   0.0000000E+00   0.0000000E+00
   0.4286492E+00   0.5375090E+00  -0.3750000E+01   0.0000000E+00   0.0000000E+00   0.0000000E+00   0.0000000E+00
   0.0000000E+00   0.0000000E+00  -0.3750000E+01   0.0000000E+00   0.0000000E+00   0.0000000E+00   0.0000000E+00
   0.3059663E+00   0.1340526E+01  -0.3750000E+01   0.0000000E+00   0.0000000E+00   0.0000000E+00   0.0000000E+00
   0.1529831E+00   0.6702630E+00  -0.3750000E+01   0.0000000E+00   0.0000000E+00   0.0000000E+00   0.0000000E+00
   0.0000000E+00   0.0000000E+00  -0.3750000E+01   0.0000000E+00   0.0000000E+00   0.0000000E+00   0.0000000E+00
   0.1714597E+01   0.2150037E+01  -0.3750000E+01   0.0000000E+00   0.0000000E+00   0.0000000E+00   0.0000000E+00
   0.1285948E+01   0.1612528E+01  -0.3750000E+01   0.0000000E+00   0.0000000E+00   0.0000000E+00   0.0000000E+00
   0.8572985E+00   0.1075018E+01  -0.3750000E+01   0.0000000E+00   0.0000000E+00   0.0000000E+00   0.0000000E+00
   0.6119325E+00   0.2681052E+01  -0.3750000E+01   0.0000000E+00   0.0000000E+00   0.0000000E+00   0.0000000E+00
   0.4589494E+00   0.2010789E+01  -0.3750000E+01   0.0000000E+00   0.0000000E+00   0.0000000E+00   0.0000000E+00
   0.3059663E+00   0.1340526E+01  -0.3750000E+01   0.0000000E+00   0.0000000E+00   0.0000000E+00   0.0000000E+00
   0.2571895E+01   0.3225055E+01  -0.3750000E+01   0.0000000E+00   0.0000000E+00   0.0000000E+00   0.0000000E+00
   0.2143246E+01   0.2687546E+01  -0.3750000E+01   0.0000000E+00   0.0000000E+00   0.0000000E+00   0.0000000E+00
   0.1714597E+01   0.2150037E+01  -0.3750000E+01   0.0000000E+00   0.0000000E+00   0.0000000E+00   0.0000000E+00
   0.1744897E+01   0.3623316E+01  -0.3750000E+01   0.0000000E+00   0.0000000E+00   0.0000000E+00   0.0000000E+00
   0.1454081E+01   0.3019430E+01  -0.3750000E+01   0.0000000E+00   0.0000000E+00   0.0000000E+00   0.0000000E+00
   0.1163265E+01   0.2415545E+01  -0.3750000E+01   0.0000000E+00   0.0000000E+00   0.0000000E+00   0.0000000E+00
   0.9178989E+00   0.4021578E+01  -0.3750000E+01   0.0000000E+00   0.0000000E+00   0.0000000E+00   0.0000000E+00
   0.7649157E+00   0.3351315E+01  -0.3750000E+01   0.0000000E+00   0.0000000E+00   0.0000000E+00   0.0000000E+00
   0.6119325E+00   0.2681052E+01  -0.3750000E+01   0.0000000E+00   0.0000000E+00   0.0000000E+00   0.0000000E+00
   0.3429194E+01   0.4300073E+01  -0.3750000E+01   0.0000000E+00   0.0000000E+00   0.0000000E+00   0.0000000E+00
   0.3000545E+01   0.3762564E+01  -0.3750000E+01   0.0000000E+00   0.0000000E+00   0.0000000E+00   0.0000000E+00
   0.2571895E+01   0.3225055E+01  -0.3750000E+01   0.0000000E+00   0.0000000E+00   0.0000000E+00   0.0000000E+00
   0.2326530E+01   0.4831089E+01  -0.3750000E+01   0.0000000E+00   0.0000000E+00   0.0000000E+00   0.0000000E+00
   0.2035713E+01   0.4227202E+01  -0.3750000E+01   0.0000000E+00   0.0000000E+00   0.0000000E+00   0.0000000E+00
   0.1744897E+01   0.3623316E+01  -0.3750000E+01   0.0000000E+00   0.0000000E+00   0.0000000E+00   0.0000000E+00
   0.1223865E+01   0.5362104E+01  -0.3750000E+01   0.0000000E+00   0.0000000E+00   0.0000000E+00   0.0000000E+00
   0.1070882E+01   0.4691841E+01  -0.3750000E+01   0.0000000E+00   0.0000000E+00   0.0000000E+00   0.0000000E+00
   0.9178989E+00   0.4021578E+01  -0.3750000E+01   0.0000000E+00   0.0000000E+00   0.0000000E+00   0.0000000E+00
   0.3059663E+00   0.1340526E+01  -0.3750000E+01   0.0000000E+00   0.0000000E+00   0.0000000E+00   0.0000000E+00
   0.1529831E+00   0.6702630E+00  -0.3750000E+01   0.0000000E+00   0.0000000E+00   0.0000000E+00   0.0000000E+00
   0.0000000E+00   0.0000000E+00  -0.3750000E+01   0.0000000E+00   0.0000000E+00   0.0000000E+00   0.0000000E+00
  -0.3059663E+00   0.1340526E+01  -0.3750000E+01   0.0000000E+00   0.0000000E+00   0.0000000E+00   0.0000000E+00
  -0.1529831E+00   0.6702630E+00  -0.3750000E+01   0.0000000E+00   0.0000000E+00   0.0000000E+00   0.0000000E+00
   0.0000000E+00   0.0000000E+00  -0.3750000E+01   0.0000000E+00   0.0000000E+00   0.0000000E+00   0.0000000E+00