VARIABLES="w (rad/s)"
"abs(F   1   1)" "angle(F   1   1)"
"abs(F   1   2)" "angle(F   1   2)"
"abs(F   1   3)" "angle(F   1   3)"
"abs(F   1   4)" "angle(F   1   4)"
"abs(F   1   5)" "angle(F   1   5)"
"abs(F   1   6)" "angle(F   1   6)"
Zone t="Diffraction force - beta =   0.000 deg",I=    50,F=POINT
  0.1000000E+00  0.3225710E+05 -0.1570327E+01  0.9530992E-03 -0.2304876E+01  0.7539725E+05  0.3141452E+01  0.9112342E-01 -0.1105205E-01  0.6484731E+05  0.1570938E+01  0.5849797E-09  0.1471128E+01
  0.2000000E+00  0.6668368E+05 -0.1568666E+01  0.4197042E-02 -0.3094312E+01  0.3211445E+06  0.3141523E+01  0.4275185E-01  0.3105894E+01  0.1612910E+06  0.1571482E+01  0.2354354E-08  0.1421906E+01
  0.3000000E+00  0.1064979E+06 -0.1564862E+01  0.1130346E-01  0.3054216E+00  0.8123288E+06 -0.3137987E+01  0.2756663E+00  0.3138936E+01  0.3361379E+06  0.1572850E+01  0.3614504E-08 -0.1831399E+01
  0.4000000E+00  0.1566376E+06 -0.1556353E+01  0.2765538E-01  0.7372505E-01  0.1788063E+07 -0.3119338E+01  0.7828417E+00  0.3033340E+01  0.6647703E+06  0.1576199E+01  0.3292723E-08  0.2356194E+01
  0.5000000E+00  0.2275575E+06 -0.1536818E+01  0.5970810E-01 -0.1710787E+01  0.4293437E+07 -0.3024406E+01  0.3196068E+01 -0.2975760E+01  0.1293366E+07  0.1584511E+01  0.7566996E-08 -0.1570796E+01
  0.6000000E+00  0.3370300E+06 -0.1491302E+01  0.3512567E+00  0.1552246E+01  0.1578381E+08 -0.2193333E+01  0.4511899E+01  0.2767115E+01  0.2546224E+07  0.1605832E+01  0.3729944E-07 -0.1620755E+01
  0.7000000E+00  0.5291430E+06 -0.1389700E+01  0.3374985E+00 -0.2925523E+01  0.7848278E+07 -0.7241716E+00  0.1045349E+02  0.2989007E+01  0.5232720E+07  0.1660229E+01  0.3399008E-07 -0.1651487E+00
  0.8000000E+00  0.9235877E+06 -0.1160199E+01  0.1375464E+00  0.2723008E+01  0.4345086E+07 -0.5551261E+00  0.1665329E+01  0.2992978E+01  0.1192236E+08  0.1807905E+01  0.8494969E-07 -0.1837048E+01
  0.9000000E+00  0.2016820E+07 -0.4734645E+00  0.1182592E+00 -0.1044447E+00  0.3081037E+07 -0.5049205E+00  0.4257390E+01  0.5746900E+00  0.3347795E+08  0.2368164E+01  0.5424105E-07 -0.2782997E+00
  0.1000000E+01  0.1776589E+07  0.1092659E+01  0.2639516E-01 -0.2273529E+01  0.2364992E+07 -0.4554088E+00  0.9410549E+00  0.2524661E+01  0.3638598E+08 -0.2525767E+01  0.1502290E-06 -0.1229440E+01
  0.1100000E+01  0.8981012E+06  0.1760540E+01  0.7894326E-02 -0.3144157E+00  0.1855474E+07 -0.3724940E+00  0.1816707E+01  0.2936976E+01  0.2111957E+08 -0.2082518E+01  0.2686345E-07  0.2158799E+01
  0.1200000E+01  0.6341499E+06  0.2128933E+01  0.4660545E-01  0.1954707E+01  0.1423082E+07 -0.2131151E+00  0.1592368E+01  0.1576009E+01  0.1522852E+08 -0.1946809E+01  0.6869096E-07 -0.8621700E+00
  0.1300000E+01  0.5447854E+06  0.2395101E+01  0.1027286E+00 -0.3063682E+01  0.1003348E+07  0.1017625E+00  0.1715992E+01  0.5675452E+00  0.1206394E+08 -0.1876725E+01  0.3071953E-07  0.2449787E+00
  0.1400000E+01  0.5090249E+06  0.2593862E+01  0.7447290E-02 -0.1639197E-01  0.5478442E+06  0.7557999E+00  0.9060845E+00  0.2454522E+01  0.9902082E+07 -0.1815614E+01  0.4586232E-07 -0.2252768E+00
  0.1500000E+01  0.4714669E+06  0.2758948E+01  0.7876951E-01 -0.2944885E-01  0.2210775E+06  0.1997652E+01  0.4053414E+00 -0.2131566E+01  0.8094824E+07 -0.1732381E+01  0.3929254E-07 -0.3046641E+01
  0.1600000E+01  0.3950658E+06  0.2921435E+01  0.5944214E-01  0.2835887E+00  0.1647599E+06  0.3006381E+01  0.6732500E+00 -0.1975379E+01  0.6322082E+07 -0.1591560E+01  0.5478204E-07  0.2830594E+01
  0.1700000E+01  0.2502398E+06  0.3053183E+01  0.3209370E-01 -0.4569499E+00  0.1535127E+06  0.3003423E+01  0.1067782E+01  0.2968795E+01  0.4341990E+07 -0.1350614E+01  0.3962501E-07  0.3094568E+01
  0.1800000E+01  0.8965109E+05  0.2514717E+01  0.2401483E-01  0.1522488E+01  0.1775158E+06  0.2790933E+01  0.4745086E+00  0.3574308E+00  0.2258003E+07 -0.9887154E+00  0.4222909E-07  0.2293776E+01
  0.1900000E+01  0.1520352E+06  0.1483844E+01  0.9051330E-02  0.1394562E+01  0.2024300E+06  0.2781390E+01  0.5772582E+00  0.1245569E+01  0.7086227E+06 -0.4579777E+00  0.3725290E-08 -0.3141592E+01
  0.2000000E+01  0.1715854E+06  0.1445819E+01  0.1252737E-02  0.4036923E+00  0.1954798E+06  0.2930110E+01  0.3777650E+00 -0.2544619E+00  0.3850400E+06  0.7138873E+00  0.5451470E-07 -0.2383378E+01
  0.2100000E+01  0.1270585E+06  0.1164731E+01  0.1562941E-01 -0.2748078E+01  0.1580331E+06 -0.3032413E+01  0.2529499E+00  0.2371850E+01  0.7533323E+06  0.9607481E+00  0.3208082E-07 -0.2762434E+01
  0.2200000E+01  0.1063202E+06  0.5922624E+00  0.1473930E-01 -0.3086697E+01  0.9601278E+05 -0.2419027E+01  0.1353182E+00 -0.1707893E+01  0.1105923E+07  0.1066870E+01  0.5477610E-07 -0.2019236E+01
  0.2300000E+01  0.1139182E+06  0.1473733E+00  0.4890299E-02  0.1177325E+01  0.6840808E+05 -0.1558490E+01  0.2213379E+00 -0.2400374E+01  0.1282360E+07  0.1214792E+01  0.9220454E-07 -0.1561958E+01
  0.2400000E+01  0.1016521E+06 -0.4296894E-01  0.3154439E-02  0.2743130E+00  0.7650508E+05 -0.1107887E+01  0.1648088E+00  0.1960519E+00  0.1210448E+07  0.1481930E+01  0.2999090E-07  0.1121037E+01
  0.2500000E+01  0.5220136E+05 -0.4374660E+00  0.2864678E-02  0.4788341E+00  0.9324480E+05 -0.9020431E+00  0.4136017E-01  0.1640487E+01  0.9174030E+06  0.1956522E+01  0.1830980E-07 -0.2097040E+01
  0.2600000E+01  0.4666911E+05 -0.1843639E+01  0.7424448E-02 -0.2677026E+01  0.1014239E+06 -0.7206872E+00  0.3514661E-01  0.7091913E+00  0.6854018E+06  0.2675001E+01  0.3185613E-07 -0.2662520E+00
  0.2700000E+01  0.6781828E+05 -0.2453895E+01  0.4461057E-02  0.1521180E+01  0.9461149E+05 -0.4393938E+00  0.2868083E+00 -0.1555261E+01  0.7262448E+06 -0.3036172E+01  0.3317979E-07 -0.3057286E+01
  0.2800000E+01  0.8545338E+05 -0.2883854E+01  0.6262464E-02 -0.2318282E+01  0.7618457E+05  0.9589139E-01  0.9485644E-01 -0.3052761E+01  0.8380441E+06 -0.2707416E+01  0.1863845E-07 -0.2037237E+01
  0.2900000E+01  0.9521538E+05 -0.3141453E+01  0.2365567E-02  0.2943565E+01  0.6716959E+05  0.9469364E+00  0.3413342E-01 -0.7596331E+00  0.8616529E+06 -0.2455729E+01  0.1585985E-07  0.2439336E+01
  0.3000000E+01  0.8593844E+05  0.3033660E+01  0.4184264E-02 -0.4167432E+00  0.7646772E+05  0.1573782E+01  0.4735393E-01  0.2482302E+01  0.7576614E+06 -0.2124437E+01  0.3464720E-07  0.9380476E+00
  0.3100000E+01  0.5026123E+05  0.3079115E+01  0.4216189E-02 -0.1893219E+00  0.8432547E+05  0.1859949E+01  0.6831909E-01  0.2472555E+01  0.5989272E+06 -0.1559419E+01  0.2765887E-07 -0.7853982E+00
  0.3200000E+01  0.8313151E+04 -0.1442030E+01  0.5758045E-03  0.2582993E+01  0.7915634E+05  0.2088033E+01  0.2184175E-01 -0.2492712E+01  0.5577375E+06 -0.7589718E+00  0.2753708E-07  0.1897894E+01
  0.3300000E+01  0.4412413E+05 -0.3473803E+00  0.3389566E-02 -0.2104460E+01  0.6063170E+05  0.2429787E+01  0.1024551E-01 -0.2634639E+01  0.6157628E+06 -0.1728586E+00  0.1468910E-07  0.3142319E+00
  0.3400000E+01  0.6284898E+05 -0.3809022E+00  0.7126443E-03 -0.1841743E+01  0.4283539E+05 -0.3090741E+01  0.4871219E-01  0.2596043E+01  0.6073966E+06  0.1638030E+00  0.1075063E-07 -0.1262744E+01
  0.3500000E+01  0.6253298E+05 -0.4562643E+00  0.7694066E-03 -0.1102714E+01  0.4373243E+05 -0.2204438E+01  0.3467862E-01  0.2941824E+01  0.4971286E+06  0.4409252E+00  0.1490844E-07 -0.2466852E+01
  0.3600000E+01  0.4161260E+05 -0.3328645E+00  0.8265226E-03  0.5649593E+00  0.4841179E+05 -0.1756713E+01  0.2540515E-01 -0.2799515E+01  0.3366040E+06  0.1011276E+01  0.1728601E-07 -0.1651700E+01
  0.3700000E+01  0.1135123E+05  0.8415927E+00  0.8820534E-03 -0.4520427E+00  0.4066975E+05 -0.1490978E+01  0.2339647E-01 -0.3092986E+01  0.3077073E+06  0.2047307E+01  0.3636931E-08  0.8760580E+00
  0.3800000E+01  0.2885700E+05  0.2280951E+01  0.6602402E-03 -0.1962032E+01  0.2439628E+05 -0.1057247E+01  0.1862645E-01  0.6353500E+00  0.3708273E+06  0.2688426E+01  0.1585985E-07  0.2273053E+01
  0.3900000E+01  0.3748005E+05  0.2318072E+01  0.5763097E-03 -0.3022164E+01  0.1904586E+05  0.3017826E+00  0.3310619E-01  0.1207130E+01  0.3321786E+06  0.2981330E+01  0.2144698E-07 -0.1204402E+01
  0.4000000E+01  0.3153414E+05  0.2275387E+01  0.1296997E-03  0.1080839E+01  0.2866731E+05  0.1068257E+01  0.1049286E-01  0.2084216E+01  0.2063341E+06 -0.3004177E+01  0.6585445E-09  0.2356194E+01
  0.4100000E+01  0.1211572E+05  0.2573276E+01  0.9847905E-03  0.8924257E+00  0.2686859E+05  0.1259744E+01  0.8056197E-02 -0.2235702E+01  0.1180533E+06 -0.1808078E+01  0.4564015E-08  0.1468590E+01
  0.4200000E+01  0.1464840E+05 -0.1248182E+01  0.8442900E-03 -0.1715888E+01  0.1664563E+05  0.1394811E+01  0.1420633E-01 -0.1680573E+01  0.1989730E+06 -0.8176051E+00  0.8267947E-08  0.5645694E+00
  0.4300000E+01  0.2221535E+05 -0.1078223E+01  0.4926907E-03  0.1387826E+01  0.7031650E+04  0.2685734E+01  0.8611297E-02 -0.1294924E+00  0.1907809E+06 -0.5999436E+00  0.4639118E-08 -0.1876675E+01
  0.4400000E+01  0.1773735E+05 -0.1240700E+01  0.3215453E-03  0.1487655E+01  0.1581712E+05 -0.2255744E+01  0.5959104E-02 -0.1200038E+01  0.1093726E+06 -0.7027456E+00  0.5636233E-08  0.9025069E+00
  0.4500000E+01  0.6838407E+04 -0.1267259E+01  0.6918189E-03  0.1681301E+01  0.1288544E+05 -0.1982298E+01  0.2227717E-02  0.2918420E+01  0.1907601E+05  0.1678926E+00  0.1145236E-07  0.1570796E+01
  0.4600000E+01  0.7417533E+04  0.1777918E+01  0.4699670E-03 -0.5684924E-01  0.6764419E+04 -0.2275580E+01  0.4865640E-02 -0.2042859E+01  0.1377837E+06  0.2388132E+01  0.1164153E-08 -0.6435011E+00
  0.4700000E+01  0.1136894E+05  0.1874368E+01  0.2807005E-03 -0.2086887E+01  0.5874262E+03 -0.2754842E+01  0.7419181E-02 -0.1094790E+00  0.1114131E+06  0.2713165E+01  0.1877197E-08 -0.3141592E+01
  0.4800000E+01  0.5087937E+04  0.2202200E+01  0.2549434E-03  0.1305857E+01  0.7388415E+04  0.8416112E-01  0.1681434E-02  0.2141180E+01  0.3212995E+05  0.3007801E+01  0.5415503E-08 -0.2015216E+01
  0.4900000E+01  0.3105042E+04 -0.1583277E+01  0.4531188E-03  0.1734530E+00  0.8967549E+04  0.3331203E+00  0.7180106E-02  0.2984349E+01  0.4609896E+05 -0.1342371E+01  0.2009640E-08  0.1745468E+01
  0.5000000E+01  0.6872550E+04 -0.1451802E+01  0.1441185E-03  0.3101878E+01  0.1813764E+04  0.4325057E+00  0.1518414E-02 -0.1447065E+01  0.8460378E+05 -0.1276060E+01  0.1439978E-08  0.2449787E+00
