VARIABLES="w (rad/s)"
"abs(F   1   1)" "angle(F   1   1)"
"abs(F   1   2)" "angle(F   1   2)"
"abs(F   1   3)" "angle(F   1   3)"
"abs(F   1   4)" "angle(F   1   4)"
"abs(F   1   5)" "angle(F   1   5)"
"abs(F   1   6)" "angle(F   1   6)"
Zone t="Diffraction force - beta =   0.000 deg",I=    50,F=POINT
  0.1000000E+00  0.1107456E+06 -0.1570657E+01  0.1506631E+00 -0.3139782E+01  0.9168856E+05  0.3141477E+01  0.3928827E+00  0.5981094E-02  0.6650140E+05  0.1570922E+01  0.1577470E-07  0.3229175E+00
  0.2000000E+00  0.2259184E+06 -0.1570167E+01  0.7009658E-02 -0.2906513E+01  0.3860046E+06  0.3141535E+01  0.7146202E+00  0.3133991E+01  0.1748147E+06  0.1571435E+01  0.4199368E-07  0.1783658E+00
  0.3000000E+00  0.3514263E+06 -0.1568998E+01  0.6558990E-01  0.3120014E+01  0.9569881E+06 -0.3138532E+01  0.3421236E-01 -0.4385161E+00  0.3835039E+06  0.1572596E+01  0.3615478E-07 -0.2834098E+01
  0.4000000E+00  0.4957131E+06 -0.1566233E+01  0.9065281E-01  0.2264113E-01  0.2041450E+07 -0.3122101E+01  0.3815004E+00  0.2334147E+00  0.7831524E+06  0.1575381E+01  0.5075921E-07 -0.3132419E+01
  0.5000000E+00  0.6734600E+06 -0.1559317E+01  0.9207617E-01 -0.6526821E+00  0.4677829E+07 -0.3034075E+01  0.3497048E+01 -0.2989936E+01  0.1540814E+07  0.1582309E+01  0.1845137E-07 -0.1986458E+01
  0.6000000E+00  0.9052827E+06 -0.1541228E+01  0.3540635E+00  0.1433013E+01  0.1610287E+08 -0.2220430E+01  0.4456879E+01  0.2759072E+01  0.3008009E+07  0.1600451E+01  0.3464720E-07 -0.2508844E+01
  0.7000000E+00  0.1229741E+07 -0.1493220E+01  0.2423405E+00 -0.2827289E+01  0.7343774E+07 -0.7867029E+00  0.1100954E+02  0.2998786E+01  0.6020771E+07  0.1648498E+01  0.5011865E-07 -0.7328153E+00
  0.8000000E+00  0.1731240E+07 -0.1356209E+01  0.9992721E-01  0.2446151E+01  0.3657347E+07 -0.6766165E+00  0.4201576E+01  0.3089156E+01  0.1314277E+08  0.1785524E+01  0.9919351E-07 -0.2169215E+01
  0.9000000E+00  0.2606632E+07 -0.8112232E+00  0.9935670E-01 -0.8487566E-01  0.2280841E+07 -0.7121328E+00  0.6627676E+01  0.3523682E+00  0.3479312E+08  0.2330178E+01  0.4360340E-07  0.3487709E+00
  0.1000000E+01  0.9629916E+06  0.5569509E+00  0.4813916E-01 -0.2704314E+01  0.1481632E+07 -0.7782850E+00  0.5896659E+00  0.2097441E+01  0.3497148E+08 -0.2585481E+01  0.8371548E-07 -0.1206817E+01
  0.1100000E+01  0.2972694E+06 -0.2177075E+01  0.7526619E-01  0.3037607E+01  0.9039318E+06 -0.8436109E+00  0.1038143E+01  0.2790612E+01  0.1827574E+08 -0.2172292E+01  0.3357931E-07  0.1626295E+01
  0.1200000E+01  0.6857173E+06 -0.2082632E+01  0.4014328E-01  0.1259022E+01  0.3936147E+06 -0.8705478E+00  0.5827792E+01  0.2849565E+01  0.1146203E+08 -0.2080460E+01  0.7395809E-07 -0.1135310E+01
  0.1300000E+01  0.8253171E+06 -0.2076653E+01  0.9272190E-01  0.3038722E+01  0.1397505E+06  0.2324217E+01  0.2008841E+01  0.4694455E+00  0.7516071E+07 -0.2075351E+01  0.6816015E-07  0.1064362E+01
  0.1400000E+01  0.8491407E+06 -0.2108032E+01  0.7965133E-01 -0.1616213E+00  0.7062656E+06  0.2580603E+01  0.2761964E+01  0.2098818E+00  0.4706663E+07 -0.2105897E+01  0.5295451E-07 -0.4164386E+00
  0.1500000E+01  0.8027531E+06 -0.2146992E+01  0.1041554E+00 -0.5393823E-01  0.9639821E+06  0.2931286E+01  0.8116815E+00 -0.2572695E+01  0.2397557E+07 -0.2145020E+01  0.4715841E-07  0.2982937E+01
  0.1600000E+01  0.6966906E+06 -0.2157205E+01  0.5351381E-01  0.3136352E+00  0.8316491E+06  0.3114884E+01  0.5589604E+00 -0.1793422E+01  0.2520800E+06 -0.2118468E+01  0.4135744E-07  0.2516107E+01
  0.1700000E+01  0.5061709E+06 -0.2085695E+01  0.4170349E-01 -0.2567371E+00  0.6154751E+06  0.3107233E+01  0.7362238E+00  0.4406587E+00  0.1910390E+07  0.1051345E+01  0.3225188E-07  0.3054854E+01
  0.1800000E+01  0.2165297E+06 -0.1912733E+01  0.2924948E-01  0.1392483E+01  0.4263846E+06  0.2998085E+01  0.7256914E+00  0.2743721E+01  0.3662953E+07  0.1225051E+01  0.3353085E-07  0.2228186E+01
  0.1900000E+01  0.8385872E+05  0.1412694E+01  0.2739882E-01  0.6994447E+00  0.2643500E+06  0.2868298E+01  0.6424022E+00  0.1131328E+01  0.4181464E+07  0.1418201E+01  0.7450580E-08 -0.1629207E-06
  0.2000000E+01  0.2539878E+06  0.1486486E+01  0.1023007E-01 -0.2252616E+00  0.1101511E+06  0.2759873E+01  0.1994832E+00  0.2969401E+01  0.3578258E+07  0.1489375E+01  0.3710491E-07 -0.2881395E+01
  0.2100000E+01  0.3052903E+06  0.1405653E+01  0.2696621E-01 -0.2929077E+01  0.3966187E+05 -0.4491084E+00  0.2907038E+00  0.1910159E+01  0.2707640E+07  0.1410716E+01  0.2553187E-07  0.2718739E+01
  0.2200000E+01  0.3024797E+06  0.1274867E+01  0.1944040E-01 -0.2899850E+01  0.1796115E+06 -0.3613199E+00  0.2269516E+00 -0.2555958E+01  0.1862794E+07  0.1280043E+01  0.5539608E-07 -0.2041963E+01
  0.2300000E+01  0.2641727E+06  0.1130119E+01  0.4506840E-02  0.1971187E+01  0.2433432E+06 -0.2849361E+00  0.3201211E+00 -0.2512769E+01  0.1049022E+07  0.1130666E+01  0.1052426E-06 -0.1563053E+01
  0.2400000E+01  0.1962398E+06  0.1026845E+01  0.8100106E-03  0.5654428E-01  0.2264088E+06 -0.3071513E+00  0.6503198E-01  0.2310552E+01  0.2120340E+06  0.1039503E+01  0.1192675E-07  0.8960559E+00
  0.2500000E+01  0.8932006E+05  0.1012910E+01  0.2453756E-02  0.6641793E+00  0.1781460E+06 -0.4231902E+00  0.1673338E+00  0.4943907E+00  0.6613515E+06 -0.2119866E+01  0.4376044E-08 -0.4993460E+00
  0.2600000E+01  0.2831156E+05 -0.2031075E+01  0.6209877E-02 -0.2683440E+01  0.1193518E+06 -0.5953248E+00  0.2655848E+00  0.3069379E+01  0.1265736E+07 -0.2075583E+01  0.3477215E-07 -0.1343214E+00
  0.2700000E+01  0.1014182E+06 -0.2113800E+01  0.5129002E-02  0.1840310E+01  0.5747391E+05 -0.7757669E+00  0.3056085E+00 -0.1425390E+01  0.1375227E+07 -0.2123698E+01  0.3431073E-07 -0.3005454E+01
  0.2800000E+01  0.1305637E+06 -0.2256060E+01  0.7501322E-02 -0.2492905E+01  0.1024181E+05  0.2348957E+01  0.7805981E-01  0.2990897E+01  0.1199977E+07 -0.2256974E+01  0.1520412E-07 -0.2491966E+01
  0.2900000E+01  0.1263387E+06 -0.2424397E+01  0.2762483E-02  0.2420684E+01  0.7296290E+05  0.2297775E+01  0.5368135E-01 -0.1883251E-01  0.8775107E+06 -0.2433937E+01  0.1647678E-07  0.2316216E+01
  0.3000000E+01  0.9954574E+05 -0.2602709E+01  0.3810775E-02 -0.6096598E+00  0.9966188E+05  0.2267023E+01  0.8743119E-01  0.2888953E+01  0.4649796E+06 -0.2599722E+01  0.3204616E-07  0.6202497E+00
  0.3100000E+01  0.5422835E+05 -0.2751926E+01  0.3474522E-02 -0.1432168E+00  0.9390580E+05  0.2104949E+01  0.5271724E-01  0.1901820E+01  0.1138415E+05  0.9291449E+00  0.1863228E-07 -0.2499507E-01
  0.3200000E+01  0.3664783E+04  0.1275225E+01  0.3147677E-02  0.3029865E+01  0.7265514E+05  0.1897939E+01  0.3896872E-01  0.3009928E+01  0.4418507E+06  0.4132114E+00  0.2430823E-07  0.1862253E+01
  0.3300000E+01  0.4554832E+05  0.4254136E+00  0.3276578E-02 -0.1797278E+01  0.3990454E+05  0.1693448E+01  0.1625953E-01 -0.1416573E+01  0.6449206E+06  0.3465230E+00  0.1453153E-07 -0.7216364E-01
  0.3400000E+01  0.5992351E+05  0.2300678E+00  0.8853058E-03 -0.2472235E+01  0.3161048E+04 -0.7598078E+00  0.4096683E-01  0.1703616E+01  0.6107831E+06  0.1945027E+00  0.9417417E-08 -0.1719687E+01
  0.3500000E+01  0.5623929E+05 -0.6057039E-01  0.5232016E-03 -0.1967550E+01  0.3550658E+05 -0.1448854E+01  0.1008737E+00  0.3013670E+01  0.4497732E+06 -0.2916786E-01  0.1550729E-07 -0.2419938E+01
  0.3600000E+01  0.4046140E+05 -0.2371974E+00  0.1226204E-02  0.3758848E+00  0.4765670E+05 -0.1628455E+01  0.2840120E-01 -0.3084623E+01  0.1816315E+06 -0.1810527E+00  0.1969588E-07 -0.1689286E+01
  0.3700000E+01  0.8640018E+04 -0.5046328E+00  0.1444280E-02 -0.2372914E+00  0.4209109E+05 -0.1843094E+01  0.2349010E-01  0.2819772E+01  0.1438528E+06  0.2947061E+01  0.1629815E-08  0.0000000E+00
  0.3800000E+01  0.1904402E+05  0.2985790E+01  0.6382868E-03 -0.1696634E+01  0.2389546E+05 -0.2045865E+01  0.8683352E-02  0.4741958E+00  0.3455596E+06  0.2875500E+01  0.1821444E-07  0.2137525E+01
  0.3900000E+01  0.2883026E+05  0.2654191E+01  0.4317353E-03 -0.2654234E+01  0.5779697E+04  0.1367654E+01  0.4606164E-01  0.1183621E+01  0.3620900E+06  0.2703675E+01  0.1802446E-07 -0.1072480E+01
  0.4000000E+01  0.2936181E+05  0.2340112E+01  0.1026430E-03  0.8379813E+00  0.2750206E+05  0.1151791E+01  0.8176266E-02  0.2576057E+01  0.2554535E+06  0.2498263E+01  0.9313221E-09 -0.1570796E+01
  0.4100000E+01  0.1680901E+05  0.2223687E+01  0.1089489E-02  0.8522958E+00  0.3184962E+05  0.9325212E+00  0.7015245E-02 -0.2608911E+01  0.3980091E+05  0.2342304E+01  0.3219888E-08  0.1352128E+01
  0.4200000E+01  0.6041108E+04 -0.6938775E+00  0.8867591E-03 -0.1682878E+01  0.2463963E+05  0.7276661E+00  0.1534351E-01 -0.1550621E+01  0.1790179E+06 -0.7071577E+00  0.7826713E-08  0.5302158E+00
  0.4300000E+01  0.1693778E+05 -0.9017450E+00  0.4791632E-03  0.1495092E+01  0.4955239E+04  0.6747550E+00  0.2028467E-01  0.2944562E-01  0.2445443E+06 -0.8711998E+00  0.5890200E-08 -0.1892547E+01
  0.4400000E+01  0.1813688E+05 -0.1248238E+01  0.2938308E-03  0.1054871E+01  0.1587062E+05 -0.2259861E+01  0.3023742E-02  0.2357096E+01  0.2027073E+06 -0.1146453E+01  0.6199594E-08  0.9723774E+00
  0.4500000E+01  0.1173608E+05 -0.1395741E+01  0.7651738E-03  0.1842076E+01  0.1745638E+05 -0.2398551E+01  0.5410873E-02  0.2697733E+01  0.6442404E+05 -0.1274544E+01  0.7029117E-08  0.1558374E+01
  0.4600000E+01  0.2785685E+04  0.2150259E+01  0.5052134E-03 -0.2596296E+00  0.1331890E+05 -0.2744348E+01  0.6785295E-02 -0.2081150E+01  0.1521604E+06  0.2292169E+01  0.3026798E-08  0.1176005E+01
  0.4700000E+01  0.1009773E+05  0.1914061E+01  0.2663204E-03 -0.1972749E+01  0.2395143E+04 -0.3048957E+01  0.8979589E-02 -0.2142735E+00  0.1565831E+06  0.2274727E+01  0.1709030E-08 -0.2865632E+01
  0.4800000E+01  0.7022709E+04  0.2012694E+01  0.2346117E-03  0.1578927E+01  0.1219466E+05  0.5095258E-01  0.1981515E-02 -0.2430611E+00  0.7137470E+05  0.2033239E+01  0.7123485E-08 -0.1895131E+01
  0.4900000E+01  0.3961343E+02 -0.2932544E+01  0.2961800E-03  0.3074949E+00  0.1544368E+05  0.1910326E+00  0.7108708E-02  0.2586088E+01  0.4534136E+05 -0.1338484E+01  0.3616378E-08  0.1635223E+01
  0.5000000E+01  0.5637896E+04 -0.1425575E+01  0.1275573E-03  0.2938331E+01  0.4642068E+04  0.1645113E+00  0.2778039E-02 -0.2125663E+01  0.1314624E+06 -0.1382744E+01  0.1455192E-08  0.2837941E+00
