VARIABLES="Period (s)" "|Fx| (N/m)" "|Fy| (N/m)" "|Fz| (N/m)" "|Cx| (N)" "|Cy| (N)" "|Cz| (N)" "ang(Fx) (°)" "ang(Fy) (°)" "ang(Fz) (°)" "ang(Cx) (°)" "ang(Cy) (°)" "ang(Cz) (°)"
Zone t="Corps  1"
Zone t="Diffraction force - beta =   0.000 deg",I=    50,F=POINT
 0.1000  0.110746E+06  0.150663E+00  0.916886E+05  0.392883E+00  0.665014E+05  0.157747E-07   -0.01   89.90 -269.99  -90.34 -180.01 -108.50
 0.2000  0.225918E+06  0.700966E-02  0.386005E+06  0.714620E+00  0.174815E+06  0.419937E-07   -0.04   76.53 -270.00 -269.56 -180.04 -100.22
 0.3000  0.351426E+06  0.655899E-01  0.956988E+06  0.342124E-01  0.383504E+06  0.361548E-07   -0.10 -268.76   89.82  -64.87 -180.10   72.38
 0.4000  0.495713E+06  0.906528E-01  0.204145E+07  0.381500E+00  0.783152E+06  0.507592E-07   -0.26  -91.30   88.88 -103.37 -180.26   89.47
 0.5000  0.673460E+06  0.920762E-01  0.467783E+07  0.349705E+01  0.154081E+07  0.184514E-07   -0.66  -52.60   83.84   81.31 -180.66   23.82
 0.6000  0.905283E+06  0.354063E+00  0.161029E+08  0.445688E+01  0.300801E+07  0.346472E-07   -1.69 -172.11   37.22 -248.08 -181.70   53.75
 0.7000  0.122974E+07  0.242341E+00  0.734377E+07  0.110095E+02  0.602077E+07  0.501187E-07   -4.44   71.99  -44.93 -261.82 -184.45  -48.01
 0.8000  0.173124E+07  0.999272E-01  0.365735E+07  0.420158E+01  0.131428E+08  0.991935E-07  -12.29 -230.15  -51.23 -267.00 -192.30   34.29
 0.9000  0.260663E+07  0.993567E-01  0.228084E+07  0.662768E+01  0.347931E+08  0.436034E-07  -43.52  -85.14  -49.20 -110.19 -223.51 -109.98
 1.0000  0.962992E+06  0.481392E-01  0.148163E+07  0.589666E+00  0.349715E+08  0.837155E-07 -121.91   64.95  -45.41 -210.17   58.14  -20.85
 1.1000  0.297269E+06  0.752662E-01  0.903932E+06  0.103814E+01  0.182757E+08  0.335793E-07   34.74 -264.04  -41.66 -249.89   34.46 -183.18
 1.2000  0.685717E+06  0.401433E-01  0.393615E+06  0.582779E+01  0.114620E+08  0.739581E-07   29.33 -162.14  -40.12 -253.27   29.20  -24.95
 1.3000  0.825317E+06  0.927219E-01  0.139751E+06  0.200884E+01  0.751607E+07  0.681601E-07   28.98 -264.11 -223.17 -116.90   28.91 -150.98
 1.4000  0.849141E+06  0.796513E-01  0.706266E+06  0.276196E+01  0.470666E+07  0.529545E-07   30.78  -80.74 -237.86 -102.03   30.66  -66.14
 1.5000  0.802753E+06  0.104155E+00  0.963982E+06  0.811682E+00  0.239756E+07  0.471584E-07   33.01  -86.91 -257.95   57.40   32.90 -260.91
 1.6000  0.696691E+06  0.535138E-01  0.831649E+06  0.558960E+00  0.252080E+06  0.413574E-07   33.60 -107.97 -268.47   12.76   31.38 -234.16
 1.7000  0.506171E+06  0.417035E-01  0.615475E+06  0.736224E+00  0.191039E+07  0.322519E-07   29.50  -75.29 -268.03 -115.25 -150.24 -265.03
 1.8000  0.216530E+06  0.292495E-01  0.426385E+06  0.725691E+00  0.366295E+07  0.335308E-07   19.59 -169.78 -261.78 -247.20 -160.19 -217.67
 1.9000  0.838587E+05  0.273988E-01  0.264350E+06  0.642402E+00  0.418146E+07  0.745058E-08 -170.94 -130.08 -254.34 -154.82 -171.26  -90.00
 2.0000  0.253988E+06  0.102301E-01  0.110151E+06  0.199483E+00  0.357826E+07  0.371049E-07 -175.17  -77.09 -248.13 -260.13 -175.33   75.09
 2.1000  0.305290E+06  0.269662E-01  0.396619E+05  0.290704E+00  0.270764E+07  0.255319E-07 -170.54   77.82  -64.27 -199.44 -170.83 -245.77
 2.2000  0.302480E+06  0.194404E-01  0.179612E+06  0.226952E+00  0.186279E+07  0.553961E-07 -163.04   76.15  -69.30   56.45 -163.34   27.00
 2.3000  0.264173E+06  0.450684E-02  0.243343E+06  0.320121E+00  0.104902E+07  0.105243E-06 -154.75 -202.94  -73.67   53.97 -154.78   -0.44
 2.4000  0.196240E+06  0.810011E-03  0.226409E+06  0.650320E-01  0.212034E+06  0.119267E-07 -148.83  -93.24  -72.40 -222.38 -149.56 -141.34
 2.5000  0.893201E+05  0.245376E-02  0.178146E+06  0.167334E+00  0.661352E+06  0.437604E-08 -148.04 -128.05  -65.75 -118.33   31.46  -61.39
 2.6000  0.283116E+05  0.620988E-02  0.119352E+06  0.265585E+00  0.126574E+07  0.347721E-07   26.37   63.75  -55.89 -265.86   28.92  -82.30
 2.7000  0.101418E+06  0.512900E-02  0.574739E+05  0.305608E+00  0.137523E+07  0.343107E-07   31.11 -195.44  -45.55   -8.33   31.68   82.20
 2.8000  0.130564E+06  0.750132E-02  0.102418E+05  0.780598E-01  0.119998E+07  0.152041E-07   39.26   52.83 -224.59 -261.37   39.32   52.78
 2.9000  0.126339E+06  0.276248E-02  0.729629E+05  0.536814E-01  0.877511E+06  0.164768E-07   48.91 -228.69 -221.65  -88.92   49.45 -222.71
 3.0000  0.995457E+05  0.381078E-02  0.996619E+05  0.874312E-01  0.464980E+06  0.320462E-07   59.12  -55.07 -219.89 -255.52   58.95 -125.54
 3.1000  0.542284E+05  0.347452E-02  0.939058E+05  0.527172E-01  0.113841E+05  0.186323E-07   67.67  -81.79 -210.60 -198.97 -143.24  -88.57
 3.2000  0.366478E+04  0.314768E-02  0.726551E+05  0.389687E-01  0.441851E+06  0.243082E-07 -163.06 -263.60 -198.74 -262.46 -113.68 -196.70
 3.3000  0.455483E+05  0.327658E-02  0.399045E+05  0.162595E-01  0.644921E+06  0.145315E-07 -114.37   12.98 -187.03   -8.84 -109.85  -85.87
 3.4000  0.599235E+05  0.885306E-03  0.316105E+04  0.409668E-01  0.610783E+06  0.941742E-08 -103.18   51.65  -46.47 -187.61 -101.14    8.53
 3.5000  0.562393E+05  0.523202E-03  0.355066E+05  0.100874E+00  0.449773E+06  0.155073E-07  -86.53   22.73   -6.99 -262.67  -88.33   48.65
 3.6000  0.404614E+05  0.122620E-02  0.476567E+05  0.284012E-01  0.181632E+06  0.196959E-07  -76.41 -111.54    3.30   86.74  -79.63    6.79
 3.7000  0.864002E+04  0.144428E-02  0.420911E+05  0.234901E-01  0.143853E+06  0.162981E-08  -61.09  -76.40   15.60 -251.56 -258.85  -90.00
 3.8000  0.190440E+05  0.638287E-03  0.238955E+05  0.868335E-02  0.345560E+06  0.182144E-07 -261.07    7.21   27.22 -117.17 -254.75 -212.47
 3.9000  0.288303E+05  0.431735E-03  0.577970E+04  0.460616E-01  0.362090E+06  0.180245E-07 -242.07   62.08 -168.36 -157.82 -244.91  -28.55
 4.0000  0.293618E+05  0.102643E-03  0.275021E+05  0.817627E-02  0.255453E+06  0.931322E-09 -224.08 -138.01 -155.99 -237.60 -233.14    0.00
 4.1000  0.168090E+05  0.108949E-02  0.318496E+05  0.701524E-02  0.398009E+05  0.321989E-08 -217.41 -138.83 -143.43   59.48 -224.20 -167.47
 4.2000  0.604111E+04  0.886759E-03  0.246396E+05  0.153435E-01  0.179018E+06  0.782671E-08  -50.24    6.42 -131.69   -1.16  -49.48 -120.38
 4.3000  0.169378E+05  0.479163E-03  0.495524E+04  0.202847E-01  0.244544E+06  0.589020E-08  -38.33 -175.66 -128.66  -91.69  -40.08   18.43
 4.4000  0.181369E+05  0.293831E-03  0.158706E+05  0.302374E-02  0.202707E+06  0.619959E-08  -18.48 -150.44   39.48 -225.05  -24.31 -145.71
 4.5000  0.117361E+05  0.765174E-03  0.174564E+05  0.541087E-02  0.644240E+05  0.702912E-08  -10.03 -195.54   47.43 -244.57  -16.97 -179.29
 4.6000  0.278569E+04  0.505213E-03  0.133189E+05  0.678529E-02  0.152160E+06  0.302680E-08 -213.20  -75.12   67.24   29.24 -221.33 -157.38
 4.7000  0.100977E+05  0.266320E-03  0.239514E+04  0.897959E-02  0.156583E+06  0.170903E-08 -199.67   23.03   84.69  -77.72 -220.33   74.19
 4.8000  0.702271E+04  0.234612E-03  0.121947E+05  0.198152E-02  0.713747E+05  0.712349E-08 -205.32 -180.47  -92.92  -76.07 -206.50   18.58
 4.9000  0.396134E+02  0.296180E-03  0.154437E+05  0.710871E-02  0.453414E+05  0.361638E-08   78.02 -107.62 -100.95 -238.17  -13.31 -183.69
 5.0000  0.563790E+04  0.127557E-03  0.464207E+04  0.277804E-02  0.131462E+06  0.145519E-08   -8.32 -258.35  -99.43   31.79  -10.77 -106.26
