VARIABLES="w (rad/s)"
"abs(F   1   1)" "angle(F   1   1)"
"abs(F   1   2)" "angle(F   1   2)"
"abs(F   1   3)" "angle(F   1   3)"
"abs(F   1   4)" "angle(F   1   4)"
"abs(F   1   5)" "angle(F   1   5)"
"abs(F   1   6)" "angle(F   1   6)"
Zone t="FKforce - beta =   0.000",I=    50,F=POINT
  0.1000000E+00  0.7848848E+05 -0.1570793E+01  0.1500250E+00  0.3138694E+01  0.1629131E+05  0.3141593E+01  0.3017765E+00  0.1112414E-01  0.1654090E+04  0.1570305E+01  0.1554395E-07  0.2885874E+00
  0.2000000E+00  0.1592348E+06 -0.1570796E+01  0.2990878E-02 -0.2641432E+01  0.6486008E+05  0.3141593E+01  0.6718864E+00  0.3135779E+01  0.1352367E+05  0.1570873E+01  0.4129710E-07  0.1243550E+00
  0.3000000E+00  0.2449297E+06 -0.1570796E+01  0.7638074E-01 -0.3115619E+01  0.1446601E+06 -0.3141593E+01  0.3070200E+00 -0.4972013E-01  0.4736609E+05  0.1570795E+01  0.3434548E-07 -0.2922924E+01
  0.4000000E+00  0.3390867E+06 -0.1570797E+01  0.6304932E-01  0.2420135E-03  0.2534425E+06  0.3141593E+01  0.1149420E+01  0.3186055E-02  0.1183835E+06  0.1570789E+01  0.4850930E-07 -0.3083964E+01
  0.5000000E+00  0.4459895E+06 -0.1570796E+01  0.8154491E-01  0.3930559E-01  0.3868266E+06  0.3141593E+01  0.3046884E+00 -0.3139189E+01  0.2474670E+06  0.1570800E+01  0.1192675E-07 -0.2245537E+01
  0.6000000E+00  0.5689213E+06 -0.1570796E+01  0.4211709E-01 -0.1159368E-01  0.5370427E+06  0.3141593E+01  0.6578763E-01  0.2017623E+00  0.4620250E+06  0.1570795E+01  0.3100059E-07  0.2570255E+01
  0.7000000E+00  0.7055529E+06 -0.1570796E+01  0.9921525E-01 -0.2584040E-01  0.6926883E+06  0.3141593E+01  0.5658565E+00 -0.3102752E+01  0.7907972E+06  0.1570796E+01  0.2818694E-07 -0.1438245E+01
  0.8000000E+00  0.8447111E+06 -0.1570796E+01  0.4961873E-01  0.1643398E+00  0.8409841E+06 -0.3141593E+01  0.2548965E+01 -0.3131248E+01  0.1252158E+07  0.1570796E+01  0.3352761E-07  0.3141593E+01
  0.9000000E+00  0.9705326E+06 -0.1570796E+01  0.1902114E-01  0.2934757E+01  0.9700356E+06  0.3141593E+01  0.2647109E+01 -0.1014538E-01  0.1846664E+07  0.1570796E+01  0.3182889E-07  0.1929567E+01
  0.1000000E+01  0.1068313E+07 -0.1570796E+01  0.2655142E-01 -0.3132397E+01  0.1068857E+07  0.3141593E+01  0.4724650E+00 -0.7344279E-01  0.2556707E+07  0.1570796E+01  0.6656188E-07  0.1883698E+01
  0.1100000E+01  0.1126271E+07 -0.1570796E+01  0.8300275E-01  0.3017739E+01  0.1127324E+07  0.3141593E+01  0.8040478E+00 -0.1518256E-01  0.3346041E+07  0.1570796E+01  0.1717274E-07  0.7086263E+00
  0.1200000E+01  0.1135754E+07 -0.1570796E+01  0.3018767E-01 -0.1665613E+00  0.1137239E+07  0.3141593E+01  0.5573409E+01  0.3126261E+01  0.4159293E+07  0.1570796E+01  0.2010988E-07 -0.2307054E+01
  0.1300000E+01  0.1091900E+07 -0.1570796E+01  0.2026296E-01  0.1044131E+01  0.1093766E+07 -0.3141593E+01  0.3448299E+00 -0.3965857E-01  0.4924286E+07  0.1570796E+01  0.5225583E-07  0.1508378E+01
  0.1400000E+01  0.9945948E+06 -0.1570796E+01  0.7229047E-01 -0.1765307E+00  0.9966944E+06 -0.3141593E+01  0.3401855E+01  0.2153007E-03  0.5558065E+07  0.1570796E+01  0.1178040E-07 -0.1249046E+01
  0.1500000E+01  0.8491756E+06 -0.1570796E+01  0.2548260E-01 -0.1297025E+00  0.8512141E+06 -0.3141593E+01  0.4776023E+00 -0.2943495E+01  0.5976355E+07  0.1570796E+01  0.1343173E-07  0.2158799E+01
  0.1600000E+01  0.6665727E+06 -0.1570796E+01  0.6165759E-02 -0.3121793E+01  0.6680964E+06  0.3141593E+01  0.1596471E+00  0.4800620E+00  0.6105508E+07  0.1570796E+01  0.2006130E-07  0.3805064E+00
  0.1700000E+01  0.4626368E+06 -0.1570796E+01  0.1207559E-01  0.3001712E+00  0.4630622E+06 -0.3141593E+01  0.1722718E+01  0.7578550E-01  0.5895558E+07  0.1570796E+01  0.7508563E-08  0.1243550E+00
  0.1800000E+01  0.2565850E+06 -0.1570796E+01  0.6265517E-02  0.8724722E+00  0.2552883E+06 -0.3141592E+01  0.1119464E+01  0.3038541E+01  0.5332346E+07  0.1570796E+01  0.9041507E-08 -0.6022874E+00
  0.1900000E+01  0.6864800E+05 -0.1570797E+01  0.2125349E-01  0.4231813E+00  0.6510006E+05  0.3141591E+01  0.9527948E-01  0.3689675E+00  0.4446182E+07  0.1570796E+01  0.1117587E-07  0.0000000E+00
  0.2000000E+01  0.8283846E+05  0.1570796E+01  0.9246473E-02 -0.3050506E+00  0.8890162E+05 -0.2952153E-07  0.5768065E+00  0.2915555E+01  0.3314288E+07  0.1570796E+01  0.2818694E-07  0.1438245E+01
  0.2100000E+01  0.1844104E+06  0.1570796E+01  0.1192865E-01  0.3116006E+01  0.1928209E+06  0.2355043E-06  0.1297042E+00  0.8574998E+00  0.2055575E+07  0.1570796E+01  0.2328306E-07  0.1287002E+01
  0.2200000E+01  0.2299792E+06  0.1570796E+01  0.5663462E-02 -0.2395259E+01  0.2400345E+06 -0.3051319E-08  0.1708559E+00  0.3091202E+01  0.8161604E+06  0.1570796E+01  0.1396984E-08  0.3141593E+01
  0.2300000E+01  0.2222066E+06  0.1570796E+01  0.3650009E-02 -0.3041092E+01  0.2326897E+06  0.2851231E-06  0.1032098E+00 -0.2755678E+01  0.2529063E+06 -0.1570796E+01  0.1303852E-07 -0.1570796E+01
  0.2400000E+01  0.1722831E+06  0.1570796E+01  0.2370029E-02 -0.2793372E+01  0.1816490E+06 -0.5712103E-08  0.2061067E+00  0.3064224E+01  0.1022866E+07 -0.1570796E+01  0.1855647E-07 -0.1876675E+01
  0.2500000E+01  0.9789188E+05  0.1570796E+01  0.6400313E-03  0.2835863E+01  0.1046180E+06 -0.4193257E-07  0.1549443E+00  0.2487047E+00  0.1414137E+07 -0.1570796E+01  0.1893960E-07  0.8114792E+00
  0.2600000E+01  0.1957762E+05  0.1570797E+01  0.1215351E-02  0.4973427E+00  0.2261417E+05 -0.2847506E-05  0.2915888E+00 -0.3128814E+01  0.1416195E+07 -0.1570796E+01  0.5268356E-08  0.7853982E+00
  0.2700000E+01  0.4378191E+05 -0.1570796E+01  0.1660336E-02  0.2843094E+01  0.4459460E+05 -0.3141592E+01  0.4277534E-01 -0.3735510E+00  0.1093904E+07 -0.1570796E+01  0.2082501E-08 -0.2034444E+01
  0.2800000E+01  0.7930766E+05 -0.1570796E+01  0.1721511E-02  0.3106131E+01  0.8302402E+05 -0.3141593E+01  0.2655031E-01  0.8607519E+00  0.5758556E+06 -0.1570796E+01  0.8330002E-08  0.2034444E+01
  0.2900000E+01  0.8302585E+05 -0.1570796E+01  0.1379803E-02  0.1392921E+01  0.8773084E+05 -0.3141593E+01  0.3664047E-01  0.6610500E+00  0.2470903E+05 -0.1570807E+01  0.2082501E-08  0.1107149E+01
  0.3000000E+01  0.6034226E+05 -0.1570796E+01  0.8550370E-03 -0.2533791E+01  0.6368755E+05 -0.3141592E+01  0.4776452E-01 -0.2991281E+01  0.4046705E+06  0.1570797E+01  0.1086099E-07 -0.1030377E+01
  0.3100000E+01  0.2373845E+05 -0.1570796E+01  0.7623670E-03  0.2740643E+01  0.2376395E+05  0.3141592E+01  0.3721682E-01  0.2024059E+00  0.6080084E+06  0.1570797E+01  0.1911481E-07  0.1619538E+01
  0.3200000E+01  0.1175019E+05  0.1570796E+01  0.2640167E-02  0.3124253E+01  0.1579435E+05  0.1477365E-05  0.2803738E-01  0.2429751E+01  0.5612477E+06  0.1570797E+01  0.3357931E-08 -0.9827937E+00
  0.3300000E+01  0.3381911E+05  0.1570796E+01  0.1025932E-02 -0.2710215E+00  0.4102723E+05  0.3668047E-06  0.1594503E-01 -0.7693264E+00  0.3249447E+06  0.1570797E+01  0.5612438E-08 -0.1477320E+01
  0.3400000E+01  0.3702979E+05  0.1570796E+01  0.5219309E-03  0.2875341E+01  0.4507168E+05  0.9199535E-06  0.3932689E-01  0.4004204E+00  0.1900223E+05  0.1570800E+01  0.4748832E-08  0.2944197E+01
  0.3500000E+01  0.2414753E+05  0.1570796E+01  0.5860032E-03  0.2785870E+01  0.3021228E+05  0.1033795E-05  0.6633130E-01  0.3051208E+01  0.2252798E+06 -0.1570796E+01  0.9313226E-09 -0.1570796E+01
  0.3600000E+01  0.4089389E+04  0.1570796E+01  0.4425707E-03  0.1723967E-01  0.6202521E+04  0.2655653E-05  0.8199468E-02  0.2140399E+01  0.3179807E+06 -0.1570796E+01  0.2507663E-08 -0.1951303E+01
  0.3700000E+01  0.1264200E+05 -0.1570796E+01  0.6120658E-03  0.7485985E-01  0.1456296E+05  0.3141592E+01  0.8634956E-02  0.1444848E+01  0.2456212E+06 -0.1570796E+01  0.2879956E-08 -0.1815775E+01
  0.3800000E+01  0.1892603E+05 -0.1570796E+01  0.1731805E-03 -0.1325515E+00  0.2291498E+05 -0.3141593E+01  0.1015168E-01 -0.2368559E+01  0.7148416E+05 -0.1570796E+01  0.3292723E-08  0.1428899E+01
  0.3900000E+01  0.1399110E+05 -0.1570796E+01  0.2328216E-03 -0.6107259E+00  0.1701910E+05 -0.3141592E+01  0.1298794E-01  0.1123667E+01  0.1005378E+06  0.1570797E+01  0.4293185E-08  0.1352127E+01
  0.4000000E+01  0.2931990E+04 -0.1570796E+01  0.3890243E-04 -0.1373401E+01  0.2618421E+04  0.3141585E+01  0.5070049E-02 -0.1923121E+01  0.1815015E+06  0.1570796E+01  0.1472550E-08 -0.1249046E+01
  0.4100000E+01  0.6831064E+04  0.1570796E+01  0.1126467E-03  0.4939414E+00  0.1075294E+05 -0.5449832E-06  0.2977331E-02  0.1939381E+01  0.1432772E+06  0.1570797E+01  0.1416254E-08 -0.1405648E+01
  0.4200000E+01  0.1002926E+05  0.1570796E+01  0.5117953E-04 -0.1107149E+01  0.1548483E+05 -0.5360838E-06  0.2229143E-02 -0.5788993E+00  0.2884918E+05  0.1570800E+01  0.5206252E-09 -0.2034444E+01
  0.4300000E+01  0.6288189E+04  0.1570796E+01  0.5382138E-04 -0.3017238E+01  0.1018295E+05  0.2396885E-07  0.1186048E-01  0.1446117E+00  0.7938723E+05 -0.1570797E+01  0.1253831E-08 -0.1951303E+01
  0.4400000E+01  0.4217833E+03 -0.1570796E+01  0.1348699E-03 -0.5016041E+00  0.8436388E+02  0.3141570E+01  0.8810485E-02  0.2080546E+01  0.1140399E+06 -0.1570796E+01  0.6984919E-09  0.1570796E+01
  0.4500000E+01  0.5030928E+04 -0.1570796E+01  0.1379667E-03  0.2773922E+01  0.7701119E+04 -0.3141592E+01  0.3273707E-02  0.2548218E+01  0.6480525E+05 -0.1570796E+01  0.4424644E-08 -0.1551062E+01
  0.4600000E+01  0.4928055E+04 -0.1570796E+01  0.1047480E-03 -0.1387686E+01  0.7899307E+04  0.3141592E+01  0.1932220E-02 -0.2177700E+01  0.1999018E+05  0.1570795E+01  0.3500212E-08  0.1504228E+01
  0.4700000E+01  0.1340455E+04 -0.1570797E+01  0.3434552E-04 -0.2777064E-01  0.1840835E+04  0.3141588E+01  0.1779278E-02 -0.6656108E+00  0.7307834E+05  0.1570796E+01  0.5206252E-09 -0.1107149E+01
  0.4800000E+01  0.2241140E+04  0.1570796E+01  0.6961169E-04 -0.2976444E+01  0.4816573E+04 -0.5575616E-06  0.3405255E-02 -0.5891528E+00  0.5959198E+05  0.1570796E+01  0.1863554E-08 -0.1539557E+01
  0.4900000E+01  0.3096579E+04  0.1570796E+01  0.1644307E-03  0.3071938E+01  0.6688166E+04  0.8395754E-06  0.2827436E-02  0.1189667E+01  0.7781658E+03  0.1570764E+01  0.1633967E-08  0.1499489E+01
  0.5000000E+01  0.1245400E+04  0.1570796E+01  0.2765656E-04  0.8097836E+00  0.2932644E+04 -0.3330009E-06  0.1858955E-02 -0.2664005E+01  0.4818922E+05 -0.1570796E+01  0.5820766E-10  0.1570796E+01
