 VARIABLES="Time (s)"
"AddedMass    1" "IRF    1"
"AddedMass    2" "IRF    2"
"AddedMass    3" "IRF    3"
"AddedMass    4" "IRF    4"
"AddedMass    5" "IRF    5"
"AddedMass    6" "IRF    6"
Zone t="DoF    1",I=   100,F=POINT
  0.0000000E+00  0.4419222E+06  0.4183842E+06 -0.3664088E-03 -0.3954377E-03  0.4680121E-01 -0.2992884E-01  0.4636020E-02 -0.2390875E-02  0.4579774E+06 -0.5061190E+06 -0.2789899E-08 -0.3913398E-08
  0.1000000E+00  0.4419222E+06  0.4125362E+06 -0.3664088E-03 -0.3883097E-03  0.4680121E-01 -0.3062546E-01  0.4636020E-02 -0.2289082E-02  0.4579774E+06 -0.5294709E+06 -0.2789899E-08 -0.3854955E-08
  0.2000000E+00  0.4419222E+06  0.3953139E+06 -0.3664088E-03 -0.3673159E-03  0.4680121E-01 -0.3265844E-01  0.4636020E-02 -0.1990803E-02  0.4579774E+06 -0.5971202E+06 -0.2789899E-08 -0.3682109E-08
  0.3000000E+00  0.4419222E+06  0.3676519E+06 -0.3664088E-03 -0.3335852E-03  0.4680121E-01 -0.3586506E-01  0.4636020E-02 -0.1516674E-02  0.4579774E+06 -0.7021379E+06 -0.2789899E-08 -0.3402128E-08
  0.4000000E+00  0.4419222E+06  0.3310180E+06 -0.3664088E-03 -0.2888732E-03  0.4680121E-01 -0.3999924E-01  0.4636020E-02 -0.8990230E-03  0.4579774E+06 -0.8338821E+06 -0.2789899E-08 -0.3026514E-08
  0.5000000E+00  0.4419222E+06  0.2872864E+06 -0.3664088E-03 -0.2353876E-03  0.4680121E-01 -0.4476400E-01  0.4636020E-02 -0.1790324E-03  0.4579774E+06 -0.9792211E+06 -0.2789899E-08 -0.2570195E-08
  0.6000000E+00  0.4419222E+06  0.2385834E+06 -0.3664088E-03 -0.1755791E-03  0.4680121E-01 -0.4984792E-01  0.4636020E-02  0.5966968E-03  0.4579774E+06 -0.1124000E+07 -0.2789899E-08 -0.2050549E-08
  0.7000000E+00  0.4419222E+06  0.1871207E+06 -0.3664088E-03 -0.1119201E-03  0.4680121E-01 -0.5495831E-01  0.4636020E-02  0.1379774E-02  0.4579774E+06 -0.1254542E+07 -0.2789899E-08 -0.1486404E-08
  0.8000000E+00  0.4419222E+06  0.1350337E+06 -0.3664088E-03 -0.4670278E-04  0.4680121E-01 -0.5984611E-01  0.4636020E-02  0.2123457E-02  0.4579774E+06 -0.1359000E+07 -0.2789899E-08 -0.8971282E-09
  0.9000000E+00  0.4419222E+06  0.8424291E+05 -0.3664088E-03  0.1811884E-04  0.4680121E-01 -0.6431831E-01  0.4636020E-02  0.2785549E-02  0.4579774E+06 -0.1428376E+07 -0.2789899E-08 -0.3019072E-09
  0.1000000E+01  0.4419222E+06  0.3634862E+05 -0.3664088E-03  0.8102362E-04  0.4680121E-01 -0.6823745E-01  0.4636020E-02  0.3330575E-02  0.4579774E+06 -0.1457119E+07 -0.2789899E-08  0.2807651E-09
  0.1100000E+01  0.4419222E+06 -0.7433036E+04 -0.3664088E-03  0.1409438E-03  0.4680121E-01 -0.7151043E-01  0.4636020E-02  0.3731140E-02  0.4579774E+06 -0.1443262E+07 -0.2789899E-08  0.8333766E-09
  0.1200000E+01  0.4419222E+06 -0.4629052E+05 -0.3664088E-03  0.1972116E-03  0.4680121E-01 -0.7407092E-01  0.4636020E-02  0.3968552E-02  0.4579774E+06 -0.1388110E+07 -0.2789899E-08  0.1339534E-08
  0.1300000E+01  0.4419222E+06 -0.7979863E+05 -0.3664088E-03  0.2494440E-03  0.4680121E-01 -0.7586144E-01  0.4636020E-02  0.4032855E-02  0.4579774E+06 -0.1295605E+07 -0.2789899E-08  0.1784041E-08
  0.1400000E+01  0.4419222E+06 -0.1078685E+06 -0.3664088E-03  0.2973867E-03  0.4680121E-01 -0.7682014E-01  0.4636020E-02  0.3922468E-02  0.4579774E+06 -0.1171480E+07 -0.2789899E-08  0.2153016E-08
  0.1500000E+01  0.4419222E+06 -0.1306777E+06 -0.3664088E-03  0.3407448E-03  0.4680121E-01 -0.7687648E-01  0.4636020E-02  0.3643638E-02  0.4579774E+06 -0.1022350E+07 -0.2789899E-08  0.2434150E-08
  0.1600000E+01  0.4419222E+06 -0.1485899E+06 -0.3664088E-03  0.3790334E-03  0.4680121E-01 -0.7595710E-01  0.4636020E-02  0.3209840E-02  0.4579774E+06 -0.8548913E+06 -0.2789899E-08  0.2617143E-08
  0.1700000E+01  0.4419222E+06 -0.1620786E+06 -0.3664088E-03  0.4114730E-03  0.4680121E-01 -0.7400056E-01  0.4636020E-02  0.2641174E-02  0.4579774E+06 -0.6752039E+06 -0.2789899E-08  0.2694361E-08
  0.1800000E+01  0.4419222E+06 -0.1716593E+06 -0.3664088E-03  0.4369589E-03  0.4680121E-01 -0.7097711E-01  0.4636020E-02  0.1963740E-02  0.4579774E+06 -0.4884182E+06 -0.2789899E-08  0.2661619E-08
  0.1900000E+01  0.4419222E+06 -0.1778386E+06 -0.3664088E-03  0.4541065E-03  0.4680121E-01 -0.6690799E-01  0.4636020E-02  0.1208867E-02  0.4579774E+06 -0.2985557E+06 -0.2789899E-08  0.2519034E-08
  0.2000000E+01  0.4419222E+06 -0.1810822E+06 -0.3664088E-03  0.4613821E-03  0.4680121E-01 -0.6187873E-01  0.4636020E-02  0.4120647E-03  0.4579774E+06 -0.1086091E+06 -0.2789899E-08  0.2271756E-08
  0.2100000E+01  0.4419222E+06 -0.1817991E+06 -0.3664088E-03  0.4572951E-03  0.4680121E-01 -0.5604196E-01  0.4636020E-02 -0.3884288E-03  0.4579774E+06  0.7922922E+05 -0.2789899E-08  0.1930479E-08
  0.2200000E+01  0.4419222E+06 -0.1803410E+06 -0.3664088E-03  0.4406291E-03  0.4680121E-01 -0.4960727E-01  0.4636020E-02 -0.1153574E-02  0.4579774E+06  0.2632717E+06 -0.2789899E-08  0.1511535E-08
  0.2300000E+01  0.4419222E+06 -0.1770099E+06 -0.3664088E-03  0.4106782E-03  0.4680121E-01 -0.4281939E-01  0.4636020E-02 -0.1845910E-02  0.4579774E+06  0.4420572E+06 -0.2789899E-08  0.1036495E-08
  0.2400000E+01  0.4419222E+06 -0.1720715E+06 -0.3664088E-03  0.3674453E-03  0.4680121E-01 -0.3592739E-01  0.4636020E-02 -0.2432214E-02  0.4579774E+06  0.6141484E+06 -0.2789899E-08  0.5312208E-09
  0.2500000E+01  0.4419222E+06 -0.1657678E+06 -0.3664088E-03  0.3117753E-03  0.4680121E-01 -0.2915165E-01  0.4636020E-02 -0.2886190E-02  0.4579774E+06  0.7780351E+06 -0.2789899E-08  0.2439825E-10
  0.2600000E+01  0.4419222E+06 -0.1583263E+06 -0.3664088E-03  0.2453880E-03  0.4680121E-01 -0.2265418E-01  0.4636020E-02 -0.3190896E-02  0.4579774E+06  0.9321577E+06 -0.2789899E-08 -0.4543619E-09
  0.2700000E+01  0.4419222E+06 -0.1499660E+06 -0.3664088E-03  0.1708098E-03  0.4680121E-01 -0.1651950E-01  0.4636020E-02 -0.3340498E-02  0.4579774E+06  0.1075011E+07 -0.2789899E-08 -0.8766785E-09
  0.2800000E+01  0.4419222E+06 -0.1408972E+06 -0.3664088E-03  0.9119648E-04  0.4680121E-01 -0.1074917E-01  0.4636020E-02 -0.3341102E-02  0.4579774E+06  0.1205295E+07 -0.2789899E-08 -0.1217603E-08
  0.2900000E+01  0.4419222E+06 -0.1313189E+06 -0.3664088E-03  0.1007318E-04  0.4680121E-01 -0.5272259E-02  0.4636020E-02 -0.3210417E-02  0.4579774E+06  0.1322056E+07 -0.2789899E-08 -0.1457667E-08
  0.3000000E+01  0.4419222E+06 -0.1214135E+06 -0.3664088E-03 -0.6897558E-04  0.4680121E-01  0.3075438E-04  0.4636020E-02 -0.2976195E-02  0.4579774E+06  0.1424788E+07 -0.2789899E-08 -0.1584489E-08
  0.3100000E+01  0.4419222E+06 -0.1113431E+06 -0.3664088E-03 -0.1426302E-03  0.4680121E-01  0.5295195E-02  0.4636020E-02 -0.2673587E-02  0.4579774E+06  0.1513442E+07 -0.2789899E-08 -0.1593874E-08
  0.3200000E+01  0.4419222E+06 -0.1012463E+06 -0.3664088E-03 -0.2081258E-03  0.4680121E-01  0.1063726E-01  0.4636020E-02 -0.2341615E-02  0.4579774E+06  0.1588370E+07 -0.2789899E-08 -0.1490150E-08
  0.3300000E+01  0.4419222E+06 -0.9123788E+05 -0.3664088E-03 -0.2634736E-03  0.4680121E-01  0.1612413E-01  0.4636020E-02 -0.2019217E-02  0.4579774E+06  0.1650186E+07 -0.2789899E-08 -0.1285808E-08
  0.3400000E+01  0.4419222E+06 -0.8141200E+05 -0.3664088E-03 -0.3075821E-03  0.4680121E-01  0.2175523E-01  0.4636020E-02 -0.1741297E-02  0.4579774E+06  0.1699601E+07 -0.2789899E-08 -0.1000414E-08
  0.3500000E+01  0.4419222E+06 -0.7184594E+05 -0.3664088E-03 -0.3402688E-03  0.4680121E-01  0.2745829E-01  0.4636020E-02 -0.1535248E-02  0.4579774E+06  0.1737246E+07 -0.2789899E-08 -0.6589302E-09
  0.3600000E+01  0.4419222E+06 -0.6260521E+05 -0.3664088E-03 -0.3621636E-03  0.4680121E-01  0.3310117E-01  0.4636020E-02 -0.1418383E-02  0.4579774E+06  0.1763547E+07 -0.2789899E-08 -0.2895932E-09
  0.3700000E+01  0.4419222E+06 -0.5374856E+05 -0.3664088E-03 -0.3745234E-03  0.4680121E-01  0.3851638E-01  0.4636020E-02 -0.1396542E-02  0.4579774E+06  0.1778654E+07 -0.2789899E-08  0.7842918E-10
  0.3800000E+01  0.4419222E+06 -0.4533055E+05 -0.3664088E-03 -0.3789883E-03  0.4680121E-01  0.4353340E-01  0.4636020E-02 -0.1464006E-02  0.4579774E+06  0.1782445E+07 -0.2789899E-08  0.4173935E-09
  0.3900000E+01  0.4419222E+06 -0.3740280E+05 -0.3664088E-03 -0.3773184E-03  0.4680121E-01  0.4801178E-01  0.4636020E-02 -0.1604689E-02  0.4579774E+06  0.1774609E+07 -0.2789899E-08  0.7031284E-09
  0.4000000E+01  0.4419222E+06 -0.3001285E+05 -0.3664088E-03 -0.3711476E-03  0.4680121E-01  0.5186803E-01  0.4636020E-02 -0.1794423E-02  0.4579774E+06  0.1754762E+07 -0.2789899E-08  0.9167944E-09
  0.4100000E+01  0.4419222E+06 -0.2320108E+05 -0.3664088E-03 -0.3617882E-03  0.4680121E-01  0.5509135E-01  0.4636020E-02 -0.2003983E-02  0.4579774E+06  0.1722586E+07 -0.2789899E-08  0.1046134E-08
  0.4200000E+01  0.4419222E+06 -0.1699764E+05 -0.3664088E-03 -0.3501077E-03  0.4680121E-01  0.5774445E-01  0.4636020E-02 -0.2202496E-02  0.4579774E+06  0.1677946E+07 -0.2789899E-08  0.1086121E-08
  0.4300000E+01  0.4419222E+06 -0.1141969E+05 -0.3664088E-03 -0.3364909E-03  0.4680121E-01  0.5995047E-01  0.4636020E-02 -0.2360798E-02  0.4579774E+06  0.1620963E+07 -0.2789899E-08  0.1038993E-08
  0.4400000E+01  0.4419222E+06 -0.6469645E+04 -0.3664088E-03 -0.3208761E-03  0.4680121E-01  0.6186851E-01  0.4636020E-02 -0.2454384E-02  0.4579774E+06  0.1552019E+07 -0.2789899E-08  0.9137202E-09
  0.4500000E+01  0.4419222E+06 -0.2135749E+04 -0.3664088E-03 -0.3028606E-03  0.4680121E-01  0.6366376E-01  0.4636020E-02 -0.2465654E-02  0.4579774E+06  0.1471704E+07 -0.2789899E-08  0.7249782E-09
  0.4600000E+01  0.4419222E+06  0.1605404E+04 -0.3664088E-03 -0.2818449E-03  0.4680121E-01  0.6547784E-01  0.4636020E-02 -0.2385262E-02  0.4579774E+06  0.1380715E+07 -0.2789899E-08  0.4917561E-09
  0.4700000E+01  0.4419222E+06  0.4784652E+04 -0.3664088E-03 -0.2571947E-03  0.4680121E-01  0.6740657E-01  0.4636020E-02 -0.2212483E-02  0.4579774E+06  0.1279723E+07 -0.2789899E-08  0.2357321E-09
  0.4800000E+01  0.4419222E+06  0.7435446E+04 -0.3664088E-03 -0.2283972E-03  0.4680121E-01  0.6948791E-01  0.4636020E-02 -0.1954689E-02  0.4579774E+06  0.1169259E+07 -0.2789899E-08 -0.2042244E-10
  0.4900000E+01  0.4419222E+06  0.9589182E+04 -0.3664088E-03 -0.1951873E-03  0.4680121E-01  0.7170334E-01  0.4636020E-02 -0.1625988E-02  0.4579774E+06  0.1049624E+07 -0.2789899E-08 -0.2547074E-09
  0.5000000E+01  0.4419222E+06  0.1127199E+05 -0.3664088E-03 -0.1576409E-03  0.4680121E-01  0.7399042E-01  0.4636020E-02 -0.1245296E-02  0.4579774E+06  0.9208638E+06 -0.2789899E-08 -0.4472745E-09
  0.5100000E+01  0.4419222E+06  0.1250341E+05 -0.3664088E-03 -0.1162242E-03  0.4680121E-01  0.7626350E-01  0.4636020E-02 -0.8340239E-03  0.4579774E+06  0.7828056E+06 -0.2789899E-08 -0.5816416E-09
  0.5200000E+01  0.4419222E+06  0.1329806E+05 -0.3664088E-03 -0.7180356E-04  0.4680121E-01  0.7843691E-01  0.4636020E-02 -0.4136848E-03  0.4579774E+06  0.6351476E+06 -0.2789899E-08 -0.6455893E-09
  0.5300000E+01  0.4419222E+06  0.1366934E+05 -0.3664088E-03 -0.2562101E-04  0.4680121E-01  0.8044498E-01  0.4636020E-02 -0.3587206E-05  0.4579774E+06  0.4776038E+06 -0.2789899E-08 -0.6317057E-09
  0.5400000E+01  0.4419222E+06  0.1363524E+05 -0.3664088E-03  0.2075571E-04  0.4680121E-01  0.8225434E-01  0.4636020E-02  0.3810952E-03  0.4579774E+06  0.3100428E+06 -0.2789899E-08 -0.5375593E-09
  0.5500000E+01  0.4419222E+06  0.1322490E+05 -0.3664088E-03  0.6550643E-04  0.4680121E-01  0.8386571E-01  0.4636020E-02  0.7307703E-03  0.4579774E+06  0.1326338E+06 -0.2789899E-08 -0.3655387E-09
  0.5600000E+01  0.4419222E+06  0.1248502E+05 -0.3664088E-03  0.1066477E-03  0.4680121E-01  0.8530416E-01  0.4636020E-02  0.1042217E-02  0.4579774E+06 -0.5405939E+05 -0.2789899E-08 -0.1223921E-09
  0.5700000E+01  0.4419222E+06  0.1148460E+05 -0.3664088E-03  0.1421411E-03  0.4680121E-01  0.8660185E-01  0.4636020E-02  0.1318705E-02  0.4579774E+06 -0.2490272E+06 -0.2789899E-08  0.1814510E-09
  0.5800000E+01  0.4419222E+06  0.1031795E+05 -0.3664088E-03  0.1700167E-03  0.4680121E-01  0.8777631E-01  0.4636020E-02  0.1569376E-02  0.4579774E+06 -0.4508218E+06 -0.2789899E-08  0.5327307E-09
  0.5900000E+01  0.4419222E+06  0.9103937E+04 -0.3664088E-03  0.1885171E-03  0.4680121E-01  0.8881004E-01  0.4636020E-02  0.1808007E-02  0.4579774E+06 -0.6576145E+06 -0.2789899E-08  0.9162786E-09
  0.6000000E+01  0.4419222E+06  0.7983460E+04 -0.3664088E-03  0.1962499E-03  0.4680121E-01  0.8963782E-01  0.4636020E-02  0.2051194E-02  0.4579774E+06 -0.8672775E+06 -0.2789899E-08  0.1315961E-08
  0.6100000E+01  0.4419222E+06  0.7113365E+04 -0.3664088E-03  0.1923479E-03  0.4680121E-01  0.9014383E-01  0.4636020E-02  0.2316210E-02  0.4579774E+06 -0.1077475E+07 -0.2789899E-08  0.1715515E-08
  0.6200000E+01  0.4419222E+06  0.6659211E+04 -0.3664088E-03  0.1766142E-03  0.4680121E-01  0.9017167E-01  0.4636020E-02  0.2618675E-02  0.4579774E+06 -0.1285737E+07 -0.2789899E-08  0.2099307E-08
  0.6300000E+01  0.4419222E+06  0.6786954E+04 -0.3664088E-03  0.1496400E-03  0.4680121E-01  0.8954532E-01  0.4636020E-02  0.2970298E-02  0.4579774E+06 -0.1489499E+07 -0.2789899E-08  0.2452837E-08
  0.6400000E+01  0.4419222E+06  0.7654201E+04 -0.3664088E-03  0.1128673E-03  0.4680121E-01  0.8809806E-01  0.4636020E-02  0.3376947E-02  0.4579774E+06 -0.1686112E+07 -0.2789899E-08  0.2763123E-08
  0.6500000E+01  0.4419222E+06  0.9403208E+04 -0.3664088E-03  0.6857918E-04  0.4680121E-01  0.8570361E-01  0.4636020E-02  0.3837225E-02  0.4579774E+06 -0.1872810E+07 -0.2789899E-08  0.3018842E-08
  0.6600000E+01  0.4419222E+06  0.1215388E+05 -0.3664088E-03  0.1980631E-04  0.4680121E-01  0.8230346E-01  0.4636020E-02  0.4341713E-02  0.4579774E+06 -0.2046652E+07 -0.2789899E-08  0.3210301E-08
  0.6700000E+01  0.4419222E+06  0.1599918E+05 -0.3664088E-03 -0.2985839E-04  0.4680121E-01  0.7792543E-01  0.4636020E-02  0.4872983E-02  0.4579774E+06 -0.2204488E+07 -0.2789899E-08  0.3329306E-08
  0.6800000E+01  0.4419222E+06  0.2100107E+05 -0.3664088E-03 -0.7652348E-04  0.4680121E-01  0.7268891E-01  0.4636020E-02  0.5406393E-02  0.4579774E+06 -0.2342918E+07 -0.2789899E-08  0.3368974E-08
  0.6900000E+01  0.4419222E+06  0.2718733E+05 -0.3664088E-03 -0.1163220E-03  0.4680121E-01  0.6679575E-01  0.4636020E-02  0.5911552E-02  0.4579774E+06 -0.2458326E+07 -0.2789899E-08  0.3323560E-08
  0.7000000E+01  0.4419222E+06  0.3454869E+05 -0.3664088E-03 -0.1457591E-03  0.4680121E-01  0.6050751E-01  0.4636020E-02  0.6354333E-02  0.4579774E+06 -0.2546958E+07 -0.2789899E-08  0.3188380E-08
  0.7100000E+01  0.4419222E+06  0.4303546E+05 -0.3664088E-03 -0.1620440E-03  0.4680121E-01  0.5411324E-01  0.4636020E-02  0.6699229E-02  0.4579774E+06 -0.2605067E+07 -0.2789899E-08  0.2959903E-08
  0.7200000E+01  0.4419222E+06  0.5255371E+05 -0.3664088E-03 -0.1633674E-03  0.4680121E-01  0.4789213E-01  0.4636020E-02  0.6911837E-02  0.4579774E+06 -0.2629116E+07 -0.2789899E-08  0.2635989E-08
  0.7300000E+01  0.4419222E+06  0.6296083E+05 -0.3664088E-03 -0.1490883E-03  0.4680121E-01  0.4207752E-01  0.4636020E-02  0.6961215E-02  0.4579774E+06 -0.2616019E+07 -0.2789899E-08  0.2216358E-08
  0.7400000E+01  0.4419222E+06  0.7406107E+05 -0.3664088E-03 -0.1198054E-03  0.4680121E-01  0.3682775E-01  0.4636020E-02  0.6822016E-02  0.4579774E+06 -0.2563392E+07 -0.2789899E-08  0.1703146E-08
  0.7500000E+01  0.4419222E+06  0.8560185E+05 -0.3664088E-03 -0.7730671E-04  0.4680121E-01  0.3220785E-01  0.4636020E-02  0.6476163E-02  0.4579774E+06 -0.2469798E+07 -0.2789899E-08  0.1101552E-08
  0.7600000E+01  0.4419222E+06  0.9727196E+05 -0.3664088E-03 -0.2440380E-04  0.4680121E-01  0.2818458E-01  0.4636020E-02  0.5914094E-02  0.4579774E+06 -0.2334934E+07 -0.2789899E-08  0.4204471E-09
  0.7700000E+01  0.4419222E+06  0.1087028E+06 -0.3664088E-03  0.3532604E-04  0.4680121E-01  0.2463475E-01  0.4636020E-02  0.5135494E-02  0.4579774E+06 -0.2159776E+07 -0.2789899E-08 -0.3271819E-09
  0.7800000E+01  0.4419222E+06  0.1194735E+06 -0.3664088E-03  0.9785312E-04  0.4680121E-01  0.2136531E-01  0.4636020E-02  0.4149620E-02  0.4579774E+06 -0.1946639E+07 -0.2789899E-08 -0.1124016E-08
  0.7900000E+01  0.4419222E+06  0.1291219E+06 -0.3664088E-03  0.1590312E-03  0.4680121E-01  0.1814101E-01  0.4636020E-02  0.2975150E-02  0.4579774E+06 -0.1699150E+07 -0.2789899E-08 -0.1948596E-08
  0.8000000E+01  0.4419222E+06  0.1371599E+06 -0.3664088E-03  0.2149082E-03  0.4680121E-01  0.1471616E-01  0.4636020E-02  0.1639756E-02  0.4579774E+06 -0.1422162E+07 -0.2789899E-08 -0.2775843E-08
  0.8100000E+01  0.4419222E+06  0.1430955E+06 -0.3664088E-03  0.2619927E-03  0.4680121E-01  0.1086580E-01  0.4636020E-02  0.1792866E-03  0.4579774E+06 -0.1121592E+07 -0.2789899E-08 -0.3578023E-08
  0.8200000E+01  0.4419222E+06  0.1464573E+06 -0.3664088E-03  0.2974465E-03  0.4680121E-01  0.6412614E-02  0.4636020E-02 -0.1363257E-02  0.4579774E+06 -0.8042192E+06 -0.2789899E-08 -0.4326017E-08
  0.8300000E+01  0.4419222E+06  0.1468244E+06 -0.3664088E-03  0.3192093E-03  0.4680121E-01  0.1246219E-02  0.4636020E-02 -0.2939205E-02  0.4579774E+06 -0.4774278E+06 -0.2789899E-08 -0.4990893E-08
  0.8400001E+01  0.4419222E+06  0.1438546E+06 -0.3664088E-03  0.3260524E-03  0.4680121E-01 -0.4664953E-02  0.4636020E-02 -0.4495848E-02  0.4579774E+06 -0.1489551E+06 -0.2789899E-08 -0.5545515E-08
  0.8500000E+01  0.4419222E+06  0.1373141E+06 -0.3664088E-03  0.3175826E-03  0.4680121E-01 -0.1127195E-01  0.4636020E-02 -0.5978528E-02  0.4579774E+06  0.1733930E+06 -0.2789899E-08 -0.5966149E-08
  0.8600000E+01  0.4419222E+06  0.1271004E+06 -0.3664088E-03  0.2942141E-03  0.4680121E-01 -0.1845101E-01  0.4636020E-02 -0.7333008E-02  0.4579774E+06  0.4820409E+06 -0.2789899E-08 -0.6233903E-08
  0.8700000E+01  0.4419222E+06  0.1132625E+06 -0.3664088E-03  0.2571257E-03  0.4680121E-01 -0.2601638E-01  0.4636020E-02 -0.8507977E-02  0.4579774E+06  0.7699020E+06 -0.2789899E-08 -0.6335776E-08
  0.8800000E+01  0.4419222E+06  0.9600953E+05 -0.3664088E-03  0.2082082E-03  0.4680121E-01 -0.3373870E-01  0.4636020E-02 -0.9457741E-02  0.4579774E+06  0.1030684E+07 -0.2789899E-08 -0.6265372E-08
  0.8900001E+01  0.4419222E+06  0.7571376E+05 -0.3664088E-03  0.1500125E-03  0.4680121E-01 -0.4136622E-01  0.4636020E-02 -0.1014475E-01  0.4579774E+06  0.1259132E+07 -0.2789899E-08 -0.6023154E-08
  0.9000000E+01  0.4419222E+06  0.5290030E+05 -0.3664088E-03  0.8568065E-04  0.4680121E-01 -0.4864800E-01  0.4636020E-02 -0.1054185E-01  0.4579774E+06  0.1451278E+07 -0.2789899E-08 -0.5616251E-08
  0.9100000E+01  0.4419222E+06  0.2822827E+05 -0.3664088E-03  0.1884911E-04  0.4680121E-01 -0.5535660E-01  0.4636020E-02 -0.1063406E-01  0.4579774E+06  0.1604637E+07 -0.2789899E-08 -0.5057951E-08
  0.9200000E+01  0.4419222E+06  0.2463541E+04 -0.3664088E-03 -0.4649003E-04  0.4680121E-01 -0.6130819E-01  0.4636020E-02 -0.1041956E-01  0.4579774E+06  0.1718335E+07 -0.2789899E-08 -0.4366866E-08
  0.9300000E+01  0.4419222E+06 -0.2355903E+05 -0.3664088E-03 -0.1061843E-03  0.4680121E-01 -0.6637923E-01  0.4636020E-02 -0.9909915E-02  0.4579774E+06  0.1793179E+07 -0.2789899E-08 -0.3565960E-08
  0.9400001E+01  0.4419222E+06 -0.4897576E+05 -0.3664088E-03 -0.1561746E-03  0.4680121E-01 -0.7051648E-01  0.4636020E-02 -0.9129485E-02  0.4579774E+06  0.1831603E+07 -0.2789899E-08 -0.2681521E-08
  0.9500000E+01  0.4419222E+06 -0.7294002E+05 -0.3664088E-03 -0.1927926E-03  0.4680121E-01 -0.7374056E-01  0.4636020E-02 -0.8113949E-02  0.4579774E+06  0.1837529E+07 -0.2789899E-08 -0.1742092E-08
  0.9600000E+01  0.4419222E+06 -0.9466831E+05 -0.3664088E-03 -0.2130854E-03  0.4680121E-01 -0.7614080E-01  0.4636020E-02 -0.6908200E-02  0.4579774E+06  0.1816105E+07 -0.2789899E-08 -0.7774338E-09
  0.9700000E+01  0.4419222E+06 -0.1134821E+06 -0.3664088E-03 -0.2151133E-03  0.4680121E-01 -0.7786197E-01  0.4636020E-02 -0.5563829E-02  0.4579774E+06  0.1773342E+07 -0.2789899E-08  0.1823192E-09
  0.9800000E+01  0.4419222E+06 -0.1288473E+06 -0.3664088E-03 -0.1981974E-03  0.4680121E-01 -0.7908366E-01  0.4636020E-02 -0.4136216E-02  0.4579774E+06  0.1715684E+07 -0.2789899E-08  0.1107643E-08
  0.9900001E+01  0.4419222E+06 -0.1404025E+06 -0.3664088E-03 -0.1630603E-03  0.4680121E-01 -0.7999440E-01  0.4636020E-02 -0.2681782E-02  0.4579774E+06  0.1649518E+07 -0.2789899E-08  0.1970382E-08
Zone t="DoF    2",I=   100,F=POINT
  0.0000000E+00  0.3793537E-03  0.3078289E-03  0.4419222E+06  0.4183843E+06 -0.1101007E-02  0.8492268E-02 -0.4579762E+06  0.5061174E+06 -0.4587671E-02  0.5417515E-02 -0.1831170E-07  0.5058924E-07
  0.1000000E+00  0.3793537E-03  0.3067599E-03  0.4419222E+06  0.4125363E+06 -0.1101007E-02  0.8341549E-02 -0.4579762E+06  0.5294684E+06 -0.4587671E-02  0.5376159E-02 -0.1831170E-07  0.5097070E-07
  0.2000000E+00  0.3793537E-03  0.3035654E-03  0.4419222E+06  0.3953140E+06 -0.1101007E-02  0.7911161E-02 -0.4579762E+06  0.5971181E+06 -0.4587671E-02  0.5252030E-02 -0.1831170E-07  0.5201949E-07
  0.3000000E+00  0.3793537E-03  0.2982900E-03  0.4419222E+06  0.3676520E+06 -0.1101007E-02  0.7263333E-02 -0.4579762E+06  0.7021361E+06 -0.4587671E-02  0.5045155E-02 -0.1831170E-07  0.5346018E-07
  0.4000000E+00  0.3793537E-03  0.2910311E-03  0.4419222E+06  0.3310180E+06 -0.1101007E-02  0.6492045E-02 -0.4579762E+06  0.8338806E+06 -0.4587671E-02  0.4756202E-02 -0.1831170E-07  0.5487022E-07
  0.5000000E+00  0.3793537E-03  0.2819662E-03  0.4419222E+06  0.2872864E+06 -0.1101007E-02  0.5709968E-02 -0.4579762E+06  0.9792198E+06 -0.4587671E-02  0.4387307E-02 -0.1831170E-07  0.5573092E-07
  0.6000000E+00  0.3793537E-03  0.2713808E-03  0.4419222E+06  0.2385835E+06 -0.1101007E-02  0.5032873E-02 -0.4579762E+06  0.1123998E+07 -0.4587671E-02  0.3942922E-02 -0.1831170E-07  0.5549126E-07
  0.7000000E+00  0.3793537E-03  0.2596866E-03  0.4419222E+06  0.1871207E+06 -0.1101007E-02  0.4563879E-02 -0.4579762E+06  0.1254542E+07 -0.4587671E-02  0.3430531E-02 -0.1831170E-07  0.5363803E-07
  0.8000000E+00  0.3793537E-03  0.2474223E-03  0.4419222E+06  0.1350337E+06 -0.1101007E-02  0.4379686E-02 -0.4579762E+06  0.1359000E+07 -0.4587671E-02  0.2861025E-02 -0.1831170E-07  0.4976429E-07
  0.9000000E+00  0.3793537E-03  0.2352326E-03  0.4419222E+06  0.8424297E+05 -0.1101007E-02  0.4520747E-02 -0.4579762E+06  0.1428375E+07 -0.4587671E-02  0.2248644E-02 -0.1831170E-07  0.4362843E-07
  0.1000000E+01  0.3793537E-03  0.2238193E-03  0.4419222E+06  0.3634864E+05 -0.1101007E-02  0.4986603E-02 -0.4579762E+06  0.1457119E+07 -0.4587671E-02  0.1610405E-02 -0.1831170E-07  0.3519671E-07
  0.1100000E+01  0.3793537E-03  0.2138706E-03  0.4419222E+06 -0.7432991E+04 -0.1101007E-02  0.5736909E-02 -0.4579762E+06  0.1443262E+07 -0.4587671E-02  0.9651141E-03 -0.1831170E-07  0.2466324E-07
  0.1200000E+01  0.3793537E-03  0.2059752E-03  0.4419222E+06 -0.4629049E+05 -0.1101007E-02  0.6697798E-02 -0.4579762E+06  0.1388110E+07 -0.4587671E-02  0.3320633E-03 -0.1831170E-07  0.1244431E-07
  0.1300000E+01  0.3793537E-03  0.2005286E-03  0.4419222E+06 -0.7979860E+05 -0.1101007E-02  0.7772368E-02 -0.4579762E+06  0.1295606E+07 -0.4587671E-02 -0.2703840E-03 -0.1831170E-07 -0.8535749E-09
  0.1400000E+01  0.3793537E-03  0.1976509E-03  0.4419222E+06 -0.1078685E+06 -0.1101007E-02  0.8853735E-02 -0.4579762E+06  0.1171481E+07 -0.4587671E-02 -0.8261121E-03 -0.1831170E-07 -0.1448905E-07
  0.1500000E+01  0.3793537E-03  0.1971249E-03  0.4419222E+06 -0.1306776E+06 -0.1101007E-02  0.9838580E-02 -0.4579762E+06  0.1022351E+07 -0.4587671E-02 -0.1322290E-02 -0.1831170E-07 -0.2765893E-07
  0.1600000E+01  0.3793537E-03  0.1983687E-03  0.4419222E+06 -0.1485899E+06 -0.1101007E-02  0.1063923E-01 -0.4579762E+06  0.8548925E+06 -0.4587671E-02 -0.1749975E-02 -0.1831170E-07 -0.3958036E-07
  0.1700000E+01  0.3793537E-03  0.2004514E-03  0.4419222E+06 -0.1620786E+06 -0.1101007E-02  0.1119270E-01 -0.4579762E+06  0.6752051E+06 -0.4587671E-02 -0.2104241E-02 -0.1831170E-07 -0.4957233E-07
  0.1800000E+01  0.3793537E-03  0.2021512E-03  0.4419222E+06 -0.1716593E+06 -0.1101007E-02  0.1146545E-01 -0.4579762E+06  0.4884198E+06 -0.4587671E-02 -0.2383839E-02 -0.1831170E-07 -0.5712619E-07
  0.1900000E+01  0.3793537E-03  0.2020528E-03  0.4419222E+06 -0.1778385E+06 -0.1101007E-02  0.1145357E-01 -0.4579762E+06  0.2985575E+06 -0.4587671E-02 -0.2590487E-02 -0.1831170E-07 -0.6195636E-07
  0.2000000E+01  0.3793537E-03  0.1986717E-03  0.4419222E+06 -0.1810821E+06 -0.1101007E-02  0.1117855E-01 -0.4579762E+06  0.1086107E+06 -0.4587671E-02 -0.2727947E-02 -0.1831170E-07 -0.6402421E-07
  0.2100000E+01  0.3793537E-03  0.1905899E-03  0.4419222E+06 -0.1817991E+06 -0.1101007E-02  0.1067951E-01 -0.4579762E+06 -0.7922762E+05 -0.4587671E-02 -0.2801073E-02 -0.1831170E-07 -0.6353243E-07
  0.2200000E+01  0.3793537E-03  0.1765845E-03  0.4419222E+06 -0.1803410E+06 -0.1101007E-02  0.1000350E-01 -0.4579762E+06 -0.2632700E+06 -0.4587671E-02 -0.2814976E-02 -0.1831170E-07 -0.6089059E-07
  0.2300000E+01  0.3793537E-03  0.1557302E-03  0.4419222E+06 -0.1770098E+06 -0.1101007E-02  0.9195041E-02 -0.4579762E+06 -0.4420557E+06 -0.4587671E-02 -0.2774479E-02 -0.1831170E-07 -0.5665693E-07
  0.2400000E+01  0.3793537E-03  0.1274639E-03  0.4419222E+06 -0.1720715E+06 -0.1101007E-02  0.8286942E-02 -0.4579762E+06 -0.6141468E+06 -0.4587671E-02 -0.2683882E-02 -0.1831170E-07 -0.5146424E-07
  0.2500000E+01  0.3793537E-03  0.9160384E-04  0.4419222E+06 -0.1657677E+06 -0.1101007E-02  0.7293433E-02 -0.4579762E+06 -0.7780336E+06 -0.4587671E-02 -0.2547105E-02 -0.1831170E-07 -0.4594075E-07
  0.2600000E+01  0.3793537E-03  0.4832266E-04  0.4419222E+06 -0.1583262E+06 -0.1101007E-02  0.6206727E-02 -0.4579762E+06 -0.9321565E+06 -0.4587671E-02 -0.2368092E-02 -0.1831170E-07 -0.4063621E-07
  0.2700000E+01  0.3793537E-03 -0.1914000E-05  0.4419222E+06 -0.1499660E+06 -0.1101007E-02  0.4997338E-02 -0.4579762E+06 -0.1075010E+07 -0.4587671E-02 -0.2151432E-02 -0.1831170E-07 -0.3596355E-07
  0.2800000E+01  0.3793537E-03 -0.5843041E-04  0.4419222E+06 -0.1408972E+06 -0.1101007E-02  0.3618141E-02 -0.4579762E+06 -0.1205293E+07 -0.4587671E-02 -0.1902989E-02 -0.1831170E-07 -0.3216313E-07
  0.2900000E+01  0.3793537E-03 -0.1204249E-03  0.4419222E+06 -0.1313188E+06 -0.1101007E-02  0.2011439E-02 -0.4579762E+06 -0.1322055E+07 -0.4587671E-02 -0.1630465E-02 -0.1831170E-07 -0.2929312E-07
  0.3000000E+01  0.3793537E-03 -0.1870347E-03  0.4419222E+06 -0.1214135E+06 -0.1101007E-02  0.1181550E-03 -0.4579762E+06 -0.1424787E+07 -0.4587671E-02 -0.1343712E-02 -0.1831170E-07 -0.2724613E-07
  0.3100000E+01  0.3793537E-03 -0.2573721E-03  0.4419222E+06 -0.1113431E+06 -0.1101007E-02 -0.2112180E-02 -0.4579762E+06 -0.1513442E+07 -0.4587671E-02 -0.1054747E-02 -0.1831170E-07 -0.2578724E-07
  0.3200000E+01  0.3793537E-03 -0.3305157E-03  0.4419222E+06 -0.1012463E+06 -0.1101007E-02 -0.4711738E-02 -0.4579762E+06 -0.1588369E+07 -0.4587671E-02 -0.7773913E-03 -0.1831170E-07 -0.2460656E-07
  0.3300000E+01  0.3793537E-03 -0.4054663E-03  0.4419222E+06 -0.9123791E+05 -0.1101007E-02 -0.7686385E-02 -0.4579762E+06 -0.1650186E+07 -0.4587671E-02 -0.5265600E-03 -0.1831170E-07 -0.2337719E-07
  0.3400000E+01  0.3793537E-03 -0.4810750E-03  0.4419222E+06 -0.8141207E+05 -0.1101007E-02 -0.1101015E-01 -0.4579762E+06 -0.1699601E+07 -0.4587671E-02 -0.3172739E-03 -0.1831170E-07 -0.2180917E-07
  0.3500000E+01  0.3793537E-03 -0.5559577E-03  0.4419222E+06 -0.7184599E+05 -0.1101007E-02 -0.1462271E-01 -0.4579762E+06 -0.1737246E+07 -0.4587671E-02 -0.1634668E-03 -0.1831170E-07 -0.1969189E-07
  0.3600000E+01  0.3793537E-03 -0.6284297E-03  0.4419222E+06 -0.6260532E+05 -0.1101007E-02 -0.1843043E-01 -0.4579762E+06 -0.1763547E+07 -0.4587671E-02 -0.7674673E-04 -0.1831170E-07 -0.1691887E-07
  0.3700000E+01  0.3793537E-03 -0.6964696E-03  0.4419222E+06 -0.5374865E+05 -0.1101007E-02 -0.2231044E-01 -0.4579762E+06 -0.1778654E+07 -0.4587671E-02 -0.6525695E-04 -0.1831170E-07 -0.1349348E-07
  0.3800000E+01  0.3793537E-03 -0.7577423E-03  0.4419222E+06 -0.4533066E+05 -0.1101007E-02 -0.2611775E-01 -0.4579762E+06 -0.1782445E+07 -0.4587671E-02 -0.1327688E-03 -0.1831170E-07 -0.9516263E-08
  0.3900000E+01  0.3793537E-03 -0.8096845E-03  0.4419222E+06 -0.3740296E+05 -0.1101007E-02 -0.2969445E-01 -0.4579762E+06 -0.1774610E+07 -0.4587671E-02 -0.2781367E-03 -0.1831170E-07 -0.5158214E-08
  0.4000000E+01  0.3793537E-03 -0.8496489E-03  0.4419222E+06 -0.3001299E+05 -0.1101007E-02 -0.3288024E-01 -0.4579762E+06 -0.1754763E+07 -0.4587671E-02 -0.4952195E-03 -0.1831170E-07 -0.6262523E-09
  0.4100000E+01  0.3793537E-03 -0.8751045E-03  0.4419222E+06 -0.2320122E+05 -0.1101007E-02 -0.3552366E-01 -0.4579762E+06 -0.1722587E+07 -0.4587671E-02 -0.7732629E-03 -0.1831170E-07  0.3872489E-08
  0.4200000E+01  0.3793537E-03 -0.8838561E-03  0.4419222E+06 -0.1699779E+05 -0.1101007E-02 -0.3749261E-01 -0.4579762E+06 -0.1677947E+07 -0.4587671E-02 -0.1097757E-02 -0.1831170E-07  0.8160923E-08
  0.4300000E+01  0.3793537E-03 -0.8742677E-03  0.4419222E+06 -0.1141984E+05 -0.1101007E-02 -0.3868381E-01 -0.4579762E+06 -0.1620964E+07 -0.4587671E-02 -0.1451661E-02 -0.1831170E-07  0.1211219E-07
  0.4400000E+01  0.3793537E-03 -0.8454472E-03  0.4419222E+06 -0.6469800E+04 -0.1101007E-02 -0.3903014E-01 -0.4579762E+06 -0.1552020E+07 -0.4587671E-02 -0.1816862E-02 -0.1831170E-07  0.1565749E-07
  0.4500000E+01  0.3793537E-03 -0.7973763E-03  0.4419222E+06 -0.2135886E+04 -0.1101007E-02 -0.3850554E-01 -0.4579762E+06 -0.1471706E+07 -0.4587671E-02 -0.2175666E-02 -0.1831170E-07  0.1878168E-07
  0.4600000E+01  0.3793537E-03 -0.7309575E-03  0.4419222E+06  0.1605285E+04 -0.1101007E-02 -0.3712672E-01 -0.4579762E+06 -0.1380716E+07 -0.4587671E-02 -0.2512160E-02 -0.1831170E-07  0.2150895E-07
  0.4700000E+01  0.3793537E-03 -0.6479811E-03  0.4419222E+06  0.4784544E+04 -0.1101007E-02 -0.3495194E-01 -0.4579762E+06 -0.1279724E+07 -0.4587671E-02 -0.2813206E-02 -0.1831170E-07  0.2388341E-07
  0.4800000E+01  0.3793537E-03 -0.5510061E-03  0.4419222E+06  0.7435350E+04 -0.1101007E-02 -0.3207642E-01 -0.4579762E+06 -0.1169260E+07 -0.4587671E-02 -0.3068987E-02 -0.1831170E-07  0.2594847E-07
  0.4900000E+01  0.3793537E-03 -0.4431817E-03  0.4419222E+06  0.9589110E+04 -0.1101007E-02 -0.2862519E-01 -0.4579762E+06 -0.1049625E+07 -0.4587671E-02 -0.3272978E-02 -0.1831170E-07  0.2773060E-07
  0.5000000E+01  0.3793537E-03 -0.3280267E-03  0.4419222E+06  0.1127193E+05 -0.1101007E-02 -0.2474328E-01 -0.4579762E+06 -0.9208651E+06 -0.4587671E-02 -0.3421416E-02 -0.1831170E-07  0.2922968E-07