VARIABLES="w (rad/s)"
"A   1   1" "B   1   1"
"A   1   2" "B   1   2"
"A   1   3" "B   1   3"
"A   1   4" "B   1   4"
"A   1   5" "B   1   5"
"A   1   6" "B   1   6"
Zone t="Motion of body    1 in DoF   1",I=    50,F=POINT
  0.1000000E+00  0.7238204E+06  0.3403595E+02  0.1602173E-02  0.1173466E-06  0.3112793E-01 -0.7897615E-03  0.3875732E-01 -0.1251698E-05 -0.1376812E+07 -0.2045123E+02  0.2793968E-07 -0.2955858E-11
  0.2000000E+00  0.7341306E+06  0.3141433E+03  0.2441406E-02 -0.4827976E-05 -0.2371216E+00 -0.2641678E-03 -0.3143311E-01  0.1096725E-04 -0.1454417E+07 -0.2429554E+03 -0.2328306E-08  0.8185452E-11
  0.3000000E+00  0.7553289E+06  0.1356533E+04  0.6306966E-02  0.5006790E-05  0.1562500E+00  0.4513741E-02 -0.2502441E-01  0.4768372E-05 -0.1633444E+07 -0.1483262E+04 -0.3414849E-07  0.3637979E-11
  0.4000000E+00  0.7892932E+06  0.4617003E+04 -0.1449585E-02  0.1010895E-03 -0.8264160E+00 -0.1323967E+00  0.1281738E-01 -0.3814697E-05 -0.1944871E+07 -0.7320201E+04  0.3259629E-07  0.7275958E-10
  0.5000000E+00  0.8479501E+06  0.1458387E+05  0.2166748E-02 -0.2202988E-03 -0.3110352E+00 -0.1160202E+00 -0.3173828E-02 -0.1144409E-03 -0.2472559E+07 -0.3349159E+05  0.5215406E-07 -0.1164153E-09
  0.6000000E+00  0.9358111E+06  0.4492266E+05 -0.1241048E-01 -0.2517700E-03 -0.3771972E+00 -0.1086426E+01  0.3255208E-01  0.1449585E-02 -0.3402551E+07 -0.1498919E+06 -0.2483527E-07  0.9313226E-09
  0.7000000E+00  0.1066913E+07  0.1358693E+06  0.3880092E-02  0.1609802E-02  0.1365095E+01  0.8544922E-03  0.2092634E-01 -0.1257324E-01 -0.5208776E+07 -0.6663396E+06 -0.6652304E-07 -0.1071021E-07
  0.8000000E+00  0.1226238E+07  0.4134391E+06 -0.7400513E-02  0.2349854E-02  0.9014893E+00  0.8081055E-01 -0.5645752E-01  0.2954102E-01 -0.8750573E+07 -0.3141804E+07 -0.8847564E-07 -0.7450581E-08
  0.9000000E+00  0.8593224E+06  0.1357919E+07  0.8816189E-02 -0.3173828E-02  0.1307509E+00 -0.1611328E-01  0.9318034E-01 -0.4443359E-01 -0.9864441E+07 -0.1812619E+08 -0.3725290E-07  0.0000000E+00
  0.1000000E+01 -0.3587143E+06  0.2592951E+06 -0.5676270E-02  0.7934570E-03  0.9790039E-01  0.1655884E+00  0.1080322E+00  0.8181763E-01  0.1854536E+08 -0.9430227E+07  0.3725290E-08  0.1117587E-07
  0.1100000E+01  0.3400214E+06  0.2910835E+05 -0.3719330E-02 -0.2408028E-03  0.2081854E+00  0.2188721E+00  0.2741033E-01 -0.4302979E-02  0.1020013E+08  0.1862976E+07  0.5926598E-08 -0.1047738E-08
  0.1200000E+01  0.5169072E+06  0.2170091E+06  0.5900065E-02  0.6484985E-03 -0.1513672E+00 -0.9082031E-01  0.5391439E-01 -0.7446289E-02  0.5495200E+07  0.3648416E+07 -0.6208817E-08  0.4190952E-08
  0.1300000E+01  0.5107388E+06  0.4040241E+06 -0.6361742E-02 -0.1220703E-03  0.7004958E-01 -0.1447754E+00  0.1849835E-01 -0.5371094E-02  0.2868092E+07  0.3685020E+07  0.2435767E-07 -0.9313226E-08
  0.1400000E+01  0.4280551E+06  0.5363532E+06 -0.8719308E-03 -0.4333496E-02  0.1098633E+00  0.2900391E+00  0.5667550E-02 -0.2941895E-01  0.1295547E+07  0.2980070E+07  0.7982765E-08  0.1303852E-07
  0.1500000E+01  0.3136577E+06  0.5921599E+06 -0.3295898E-02  0.6103516E-04 -0.1866048E+00 -0.6030273E-01  0.8138021E-03 -0.8422852E-02  0.4271525E+06  0.1767635E+07  0.1924733E-07 -0.3725290E-07
  0.1600000E+01  0.1952219E+06  0.5434807E+06  0.1668930E-03  0.1220703E-02  0.1258850E-01  0.2319336E-01 -0.2212524E-02 -0.3417969E-02  0.1955527E+06  0.1918231E+06 -0.1280569E-07 -0.2607703E-07
  0.1700000E+01  0.1174852E+06  0.3470727E+06  0.3231273E-03 -0.3112793E-02  0.2639591E+00  0.1106567E+00 -0.7683249E-02  0.2197266E-01  0.7503464E+06 -0.1315125E+07 -0.2191347E-08  0.3725290E-07
  0.1800000E+01  0.1656863E+06  0.7766680E+05  0.2543132E-03 -0.1068115E-03  0.2265082E-01  0.3909302E-01 -0.2217611E-01  0.8575439E-02  0.1837177E+07 -0.1312475E+07 -0.5691416E-08 -0.2793968E-08
  0.1900000E+01  0.3036236E+06  0.1114971E+05 -0.4256399E-03 -0.1335144E-03 -0.1130757E+00  0.2375793E-01  0.2068771E-01 -0.6401062E-02  0.2198378E+07  0.5778225E+06  0.2328306E-08 -0.2328306E-09
  0.2000000E+01  0.3629947E+06  0.1347827E+06 -0.1152039E-02 -0.2544403E-02 -0.5480957E-01  0.2526855E-01 -0.5615234E-02 -0.7995605E-02  0.1599931E+07  0.1932098E+07 -0.1396984E-07 -0.8381903E-08
  0.2100000E+01  0.3503950E+06  0.2269106E+06 -0.2819243E-02  0.2441406E-03 -0.1464844E-01  0.2313232E-01 -0.2673921E-02 -0.2160645E-01  0.9844092E+06  0.2057375E+07  0.2572224E-07 -0.1862645E-08
  0.2200000E+01  0.3187086E+06  0.2586602E+06 -0.1699274E-02  0.1861572E-02  0.2552379E-02  0.1019287E+00 -0.2552379E-02 -0.5279541E-02  0.5818606E+06  0.1626113E+07  0.1015988E-07 -0.2793968E-07
  0.2300000E+01  0.2885558E+06  0.2293698E+06  0.2348527E-02  0.4882812E-03  0.5392323E-01 -0.4089355E-02  0.1061481E-01 -0.4364014E-02  0.4019841E+06  0.9226701E+06  0.8503380E-08  0.7450581E-08
  0.2400000E+01  0.2738767E+06  0.1464579E+06 -0.1255671E-03 -0.8697510E-03  0.7385254E-01  0.2773285E-01 -0.2644857E-02  0.1182556E-02  0.4451953E+06  0.1611069E+06  0.1649217E-07 -0.5587935E-08
  0.2500000E+01  0.2917097E+06  0.3705609E+05 -0.4019165E-02 -0.2670288E-03  0.6308594E-01 -0.8596039E-01  0.7226563E-02  0.1871109E-02  0.7186528E+06 -0.2571428E+06  0.1220033E-07  0.0000000E+00
  0.2600000E+01  0.3352789E+06  0.2735441E+04  0.9800838E-03 -0.1335144E-04 -0.1784105E-01  0.8007431E-01  0.9671725E-02 -0.4959106E-03  0.9501256E+06  0.1457237E+06 -0.1611905E-07  0.5820766E-10
  0.2700000E+01  0.3582872E+06  0.4915621E+05  0.3888165E-02 -0.1869202E-03  0.1265914E-01 -0.1693726E-02  0.1112196E-01 -0.8987427E-02  0.8902735E+06  0.7317464E+06  0.0000000E+00 -0.1047738E-08
  0.2800000E+01  0.3580542E+06  0.9419973E+05  0.5471366E-02 -0.6637573E-03 -0.5615234E-01  0.1432800E-01  0.1831055E-02 -0.1237488E-01  0.7162757E+06  0.9413763E+06 -0.1396984E-07  0.0000000E+00
  0.2900000E+01  0.3469895E+06  0.1072185E+06  0.1967858E-02  0.8392334E-03  0.3266433E-01 -0.2142334E-01 -0.1683728E-02 -0.4219055E-02  0.5646334E+06  0.7691429E+06 -0.5138331E-08  0.0000000E+00
  0.3000000E+01  0.3382584E+06  0.7875991E+05 -0.5645752E-03  0.3662109E-03  0.7796224E-01  0.1259613E-01  0.3580729E-02  0.2368927E-02  0.5071940E+06  0.3674282E+06  0.1179675E-07  0.2793968E-08
  0.3100000E+01  0.3412009E+06  0.2799749E+05  0.5168300E-03  0.1716614E-03  0.6142893E-01  0.5553079E-01 -0.6300404E-03 -0.2717972E-04  0.5676624E+06 -0.1514650E+04  0.1802560E-08  0.1396984E-08
  0.3200000E+01  0.3569862E+06 -0.2672769E+04 -0.6675720E-03 -0.2646446E-04  0.9307861E-02  0.1648235E-01 -0.1831055E-02  0.4768372E-05  0.6845384E+06 -0.1368203E+04  0.2910383E-07  0.7275958E-10
  0.3300000E+01  0.3709759E+06  0.1825883E+05 -0.2422911E-02  0.1049042E-04  0.8507931E-01 -0.2940750E-01 -0.2515388E-02  0.4158020E-03  0.7102714E+06  0.3076455E+06 -0.1749758E-07  0.1164153E-08
  0.3400000E+01  0.3714767E+06  0.4391491E+05  0.3321030E-02 -0.4425049E-03  0.4495060E-01 -0.2341461E-01 -0.7467831E-02 -0.2002716E-02  0.6411621E+06  0.4592339E+06  0.0000000E+00  0.2095476E-08
  0.3500000E+01  0.3678977E+06  0.4390070E+05 -0.1839774E-02  0.7629395E-04  0.4366630E-01  0.9899139E-02 -0.8370535E-02  0.4402161E-02  0.5863131E+06  0.3480546E+06 -0.3299543E-07 -0.2328306E-08
  0.3600000E+01  0.3658441E+06  0.2388604E+05  0.3051758E-02 -0.1907349E-04  0.5113390E-01 -0.1829147E-02 -0.9901259E-02  0.3709793E-03  0.5678232E+06  0.1058810E+06 -0.2535267E-07  0.2328306E-09
  0.3700000E+01  0.3722118E+06 -0.3263891E+04  0.3472405E-02 -0.9417534E-05  0.3061655E-01 -0.1481056E-02  0.3563133E-02  0.2384186E-04  0.6193957E+06 -0.2488552E+05 -0.8558099E-08 -0.2910383E-10
  0.3800000E+01  0.3803836E+06  0.5689431E+04 -0.2650211E-03 -0.1004934E-03  0.7105777E-01  0.1567650E-01  0.1259252E-01 -0.5750656E-03  0.6465807E+06  0.1285024E+06 -0.4901698E-09  0.3492460E-09
  0.3900000E+01  0.3813550E+06  0.1850697E+05 -0.6596492E-02 -0.2822876E-03  0.1890525E-01  0.2140045E-02  0.1752804E-02 -0.2384186E-03  0.6181969E+06  0.2334390E+06 -0.2865608E-08 -0.1396984E-08
  0.4000000E+01  0.3805331E+06  0.1576066E+05 -0.2609253E-02  0.1296997E-03 -0.2416992E-01 -0.6034851E-02 -0.2441406E-03 -0.3528595E-04  0.5819494E+06  0.1558611E+06  0.5587935E-08  0.1164153E-09
  0.4100000E+01  0.3815870E+06  0.3432167E+04 -0.3431367E-02 -0.9536743E-06 -0.3644245E-01 -0.1377417E-01  0.5954650E-03 -0.7539988E-05  0.5827296E+06  0.1009225E+05 -0.2362379E-07  0.2910383E-09
  0.4200000E+01  0.3865885E+06 -0.1560217E+04 -0.2615792E-02  0.4768372E-06  0.1836868E-01 -0.3672957E-02  0.4650298E-02  0.5173683E-04  0.6131443E+06  0.1918013E+05 -0.1773948E-08 -0.2910383E-10
  0.4300000E+01  0.3880240E+06  0.8981922E+04 -0.3307254E-02 -0.4291534E-04  0.1112827E-01  0.9895325E-02  0.2838844E-02 -0.9908676E-03  0.6013779E+06  0.1121038E+06 -0.1472789E-07 -0.4074536E-09
  0.4400000E+01  0.3882705E+06  0.6935308E+04  0.2802068E-02 -0.6771088E-04 -0.1176314E-01  0.2053261E-02 -0.3884055E-02 -0.3018379E-03  0.5846521E+06  0.1019575E+06 -0.8466569E-09  0.0000000E+00
  0.4500000E+01  0.3891169E+06  0.2110821E+04  0.1356337E-03  0.7629395E-05 -0.1258681E-01 -0.9136558E-02 -0.3689236E-02  0.1625717E-04  0.5727754E+06  0.1803639E+05  0.2235174E-07 -0.1455192E-09
  0.4600000E+01  0.3921294E+06  0.8588637E+03  0.1751444E-02 -0.6318092E-05 -0.4819124E-01  0.1175761E-01 -0.5307405E-03  0.7419586E-03  0.6256128E+06  0.5019871E+05  0.1619691E-08  0.2910383E-10
  0.4700000E+01  0.3931997E+06  0.2376395E+04  0.1324593E-02  0.2145767E-04  0.7272274E-02  0.5517483E-02  0.3116689E-03 -0.9095669E-03  0.6092818E+06  0.6761145E+05 -0.2377845E-08 -0.5820766E-10
  0.4800000E+01  0.3935830E+06  0.8332991E+03 -0.3369649E-02  0.2837181E-04 -0.1444499E-01  0.2743863E-03 -0.6001790E-02 -0.8187816E-04  0.6063131E+06  0.2371282E+05 -0.3880511E-08  0.2910383E-10
  0.4900000E+01  0.3955417E+06 -0.5395878E+03 -0.2167371E-02  0.2026558E-05 -0.5978954E-02  0.6234460E-02 -0.1893335E-02  0.5083531E-04  0.6148264E+06 -0.5539623E+04  0.1368474E-07  0.3637979E-10
  0.5000000E+01  0.3965654E+06  0.1782097E+04 -0.6835937E-03 -0.1001358E-04 -0.1933594E-01  0.2816677E-02 -0.8593750E-02 -0.5722046E-04  0.6141019E+06  0.2979572E+05  0.2458692E-07 -0.1018634E-09
Zone t="Motion of body    1 in DoF   2",I=    50,F=POINT
  0.1000000E+00  0.3700256E-02 -0.2365559E-06  0.7238201E+06  0.3403418E+02  0.1286316E+00 -0.5904585E-06  0.1376812E+07  0.2044002E+02  0.4882812E-02 -0.7003546E-06  0.2124580E-07  0.3194600E-10
  0.2000000E+00  0.3509521E-02 -0.5006790E-05  0.7341304E+06  0.3141467E+03  0.6942749E-01 -0.2488494E-04  0.1454418E+07  0.2429644E+03 -0.2197266E-01  0.2384186E-05  0.1164153E-08  0.4129674E-09
  0.3000000E+00  0.4069010E-02  0.1382828E-04  0.7553283E+06  0.1356533E+04  0.5635579E-01 -0.2343059E-03  0.1633442E+07  0.1483249E+04  0.3458659E-02 -0.7629395E-05 -0.4889443E-07  0.1591616E-09
  0.4000000E+00  0.7972717E-02 -0.1597404E-04  0.7892926E+06  0.4616998E+04 -0.7293701E-01  0.5602837E-04  0.1944868E+07  0.7320218E+04 -0.1586914E-01 -0.7629395E-04  0.1309672E-08  0.5411493E-09
  0.5000000E+00 -0.8789062E-02  0.2861023E-05  0.8479508E+06  0.1458387E+05 -0.2415466E+00  0.2292633E-02  0.2472562E+07  0.3349161E+05 -0.3222656E-01 -0.1754761E-03 -0.6076880E-07  0.2437446E-09
  0.6000000E+00  0.9104410E-02  0.3833771E-03  0.9358111E+06  0.4492273E+05 -0.3059896E+00  0.8300781E-02  0.3402553E+07  0.1498921E+06  0.2034505E-02  0.1312256E-02 -0.3492460E-07 -0.1283479E-07
  0.7000000E+00  0.1002720E-02  0.1037598E-02  0.1066913E+07  0.1358693E+06  0.5697632E+00  0.3819275E-01  0.5208778E+07  0.6663401E+06 -0.3104074E-01 -0.1141357E-01 -0.8182334E-07 -0.8847564E-08
  0.8000000E+00  0.2212524E-02 -0.7019043E-03  0.1226238E+07  0.4134397E+06 -0.1304245E+00 -0.1038666E+00  0.8750584E+07  0.3141810E+07 -0.8636475E-01  0.4882812E-01  0.1088483E-06 -0.1280569E-07
  0.9000000E+00  0.4882812E-02  0.9399414E-02  0.8593202E+06  0.1357921E+07  0.2253215E-01  0.4698486E+00  0.9864427E+07  0.1812622E+08 -0.1424154E+00  0.9277344E-02 -0.1293504E-08  0.1564622E-06
  0.1000000E+01  0.6713867E-03 -0.2990723E-02 -0.3587128E+06  0.2592931E+06 -0.3163376E+00 -0.4111862E-01 -0.1854535E+08  0.9430183E+07 -0.4589844E-01  0.4882812E-03 -0.1904555E-06 -0.2759043E-07
  0.1100000E+01  0.1260584E-02  0.3385544E-04  0.3400218E+06  0.2910861E+05 -0.1795266E+00 -0.7987213E-01 -0.1020012E+08 -0.1862980E+07  0.3151634E-01 -0.1068115E-02 -0.5587935E-07  0.3758469E-06
  0.1200000E+01 -0.4272461E-02  0.5035400E-03  0.5169073E+06  0.2170092E+06  0.3627523E+00  0.2345276E-01 -0.5495200E+07 -0.3648416E+07  0.1159668E-01 -0.1379395E-01  0.1983911E-06  0.1425506E-06
  0.1300000E+01 -0.3098708E-02  0.6408691E-03  0.5107391E+06  0.4040242E+06  0.2436711E-01 -0.1853485E+00 -0.2868093E+07 -0.3685017E+07  0.3878080E-01  0.1745605E-01 -0.9026665E-07  0.2067536E-06
  0.1400000E+01 -0.1286098E-02 -0.1556396E-02  0.4280549E+06  0.5363532E+06  0.5044120E-01 -0.1392059E+00 -0.1295547E+07 -0.2980072E+07 -0.2615792E-03 -0.2319336E-02 -0.1461012E-06 -0.1052395E-06
  0.1500000E+01 -0.6408691E-02 -0.4425049E-02  0.3136577E+06  0.5921598E+06 -0.3435262E-01  0.1097107E-01 -0.4271520E+06 -0.1767637E+07  0.4231771E-02 -0.1220703E-02  0.4082297E-07  0.1157168E-06
  0.1600000E+01 -0.5650520E-03  0.6103516E-03  0.1952218E+06  0.5434802E+06  0.3657341E-02  0.3527069E-01 -0.1955525E+06 -0.1918271E+06  0.2822876E-02 -0.7934570E-02  0.1314129E-06  0.3771856E-07
  0.1700000E+01 -0.4308364E-03  0.3356934E-03  0.1174852E+06  0.3470725E+06 -0.3204346E-02  0.1140213E-01 -0.7503461E+06  0.1315122E+07  0.7898667E-03  0.3555298E-01  0.9593992E-07  0.7706694E-07
  0.1800000E+01 -0.2882216E-03 -0.3204346E-03  0.1656862E+06  0.7766692E+05  0.2447340E-01 -0.4129410E-02 -0.1837171E+07  0.1312472E+07 -0.2034505E-02  0.1780701E-01 -0.9704511E-07  0.1034350E-06
  0.1900000E+01 -0.2714458E-02  0.9536743E-04  0.3036234E+06  0.1114977E+05  0.9621068E-02 -0.8985519E-02 -0.2198378E+07 -0.5778228E+06  0.1683285E-01 -0.1571655E-02  0.1109162E-06  0.4191679E-07
  0.2000000E+01  0.3112793E-02 -0.4844666E-03  0.3629947E+06  0.1347827E+06 -0.4272461E-03  0.2886200E-01 -0.1599932E+07 -0.1932099E+07  0.2075195E-02 -0.3875732E-02 -0.1633307E-06 -0.7898780E-07
  0.2100000E+01 -0.2964565E-02 -0.3051758E-04  0.3503952E+06  0.2269108E+06 -0.5812872E-02 -0.7835388E-02 -0.9844101E+06 -0.2057376E+07  0.4534041E-02 -0.6835938E-02  0.8465057E-07  0.4546018E-07
  0.2200000E+01  0.2080744E-02  0.1556396E-02  0.3187088E+06  0.2586604E+06  0.1316417E-01  0.2291870E-01 -0.5818614E+06 -0.1626114E+07  0.1997514E-02  0.1092529E-01  0.1211778E-07  0.4284084E-07
  0.2300000E+01 -0.2434772E-02  0.2441406E-02  0.2885559E+06  0.2293699E+06 -0.1046886E-01  0.1842308E-01 -0.4019844E+06 -0.9226704E+06  0.2122962E-03 -0.3875732E-02 -0.1083422E-06 -0.1629815E-08
  0.2400000E+01  0.3433228E-03 -0.1296997E-02  0.2738767E+06  0.1464579E+06 -0.2235413E-01  0.2047539E-02 -0.4451951E+06 -0.1611075E+06 -0.1322428E-02 -0.1541138E-02  0.3629490E-07 -0.2235174E-07
  0.2500000E+01  0.5447388E-02 -0.3128052E-03  0.2917097E+06  0.3705606E+05  0.3426514E-01  0.2484512E-01 -0.7186516E+06  0.2571415E+06 -0.5859375E-03 -0.1420975E-02 -0.1173466E-07  0.1513399E-08
  0.2600000E+01 -0.3756010E-03  0.2193451E-04  0.3352790E+06  0.2735460E+04  0.1804058E-01  0.9796619E-03 -0.9501264E+06 -0.1457235E+06  0.4225511E-02 -0.1068115E-02 -0.9252780E-07  0.1402077E-07
  0.2700000E+01  0.7685908E-03 -0.3204346E-03  0.3582873E+06  0.4915618E+05 -0.5207203E-01 -0.1021957E-01 -0.8902735E+06 -0.7317457E+06 -0.5425347E-02  0.4600525E-02  0.2112722E-08  0.6592745E-07
  0.2800000E+01 -0.2419608E-02  0.9155273E-04  0.3580541E+06  0.9419983E+05 -0.2092634E-01 -0.1988792E-01 -0.7162754E+06 -0.9413766E+06 -0.3662109E-02 -0.3219604E-02  0.1505084E-07 -0.7066410E-07
  0.2900000E+01 -0.1262796E-03  0.4730225E-03  0.3469894E+06  0.1072184E+06 -0.2181481E-01  0.5990982E-02 -0.5646332E+06 -0.7691431E+06  0.6734914E-02 -0.5187988E-03 -0.4022350E-07 -0.8154893E-07
  0.3000000E+01 -0.4592896E-02 -0.3662109E-03  0.3382583E+06  0.7875991E+05 -0.2248128E-02 -0.1241493E-01 -0.5071939E+06 -0.3674282E+06 -0.1627604E-03  0.3192902E-02 -0.8281010E-07 -0.3713649E-07
  0.3100000E+01 -0.2146075E-02 -0.4959106E-04  0.3412008E+06  0.2799751E+05  0.2223846E-01 -0.2647176E-02 -0.5676616E+06  0.1514248E+04 -0.3150202E-03  0.5989075E-03 -0.2666287E-08 -0.5820766E-10
  0.3200000E+01 -0.1029968E-02  0.1883507E-04  0.3569863E+06 -0.2672765E+04  0.1324654E-01 -0.9536743E-05 -0.6845372E+06  0.1367841E+04 -0.1525879E-03  0.0000000E+00 -0.1702574E-07  0.4763933E-08
  0.3300000E+01  0.2126983E-02 -0.3814697E-04  0.3709758E+06  0.1825879E+05 -0.1455596E-01  0.1090360E-01 -0.7102713E+06 -0.3076453E+06  0.3995028E-02 -0.5840302E-02 -0.8995730E-07 -0.2247907E-07
  0.3400000E+01  0.4667394E-02 -0.1525879E-04  0.3714764E+06  0.4391489E+05 -0.9873333E-02  0.1501846E-01 -0.6411622E+06 -0.4592337E+06  0.4882812E-02  0.2620697E-02  0.1684598E-07 -0.3646710E-07
  0.3500000E+01 -0.1368931E-02  0.5340576E-03  0.3678975E+06  0.4390070E+05 -0.1715960E-01  0.4124165E-02 -0.5863133E+06 -0.3480546E+06 -0.1674107E-02  0.1853943E-02  0.8737801E-07 -0.5884795E-07
  0.3600000E+01  0.2093845E-02 -0.3700256E-03  0.3658439E+06  0.2388608E+05 -0.2631293E-01 -0.5780458E-03 -0.5678232E+06 -0.1058810E+06  0.7052951E-02  0.8392334E-04  0.6234687E-07 -0.4124013E-07
  0.3700000E+01 -0.1179463E-02 -0.8821487E-05  0.3722116E+06 -0.3263901E+04 -0.5613585E-01 -0.1707792E-02 -0.6193958E+06  0.2488557E+05 -0.2375422E-02 -0.4768372E-05  0.1958924E-06  0.7291419E-08
  0.3800000E+01 -0.1806962E-02  0.1490116E-04  0.3803838E+06  0.5689411E+04 -0.8866159E-02  0.4809141E-02 -0.6465812E+06 -0.1285024E+06  0.4111842E-02 -0.1792908E-03 -0.8020403E-07  0.6495611E-08
  0.3900000E+01  0.4483737E-02  0.9155273E-04  0.3813548E+06  0.1850698E+05 -0.1472669E-01  0.2015805E-01 -0.6181971E+06 -0.2334391E+06  0.2879607E-02  0.1667023E-02  0.8471453E-07 -0.1041917E-07
  0.4000000E+01  0.2891541E-02 -0.7438660E-04  0.3805331E+06  0.1576067E+05 -0.2766418E-01 -0.1184571E-01 -0.5819492E+06 -0.1558613E+06 -0.1831055E-02 -0.2723694E-02  0.3905734E-07 -0.2222077E-07
  0.4100000E+01  0.1697075E-02  0.9536743E-06  0.3815869E+06  0.3432160E+04 -0.2508396E-01  0.4759301E-03 -0.5827296E+06 -0.1009224E+05  0.1905488E-02 -0.1065433E-04 -0.7717484E-07 -0.2755405E-07
  0.4200000E+01 -0.3327869E-02 -0.2384186E-05  0.3865887E+06 -0.1560221E+04 -0.1983643E-01 -0.2767295E-03 -0.6131446E+06 -0.1918012E+05  0.5929130E-02 -0.2474785E-03  0.2766250E-07  0.8698407E-08
  0.4300000E+01 -0.1873637E-02 -0.5245209E-04  0.3880242E+06  0.8981933E+04 -0.2166038E-01 -0.9549856E-03 -0.6013772E+06 -0.1121038E+06  0.3747275E-02  0.5722046E-05 -0.2907676E-07  0.8334609E-08
  0.4400000E+01  0.1886541E-02 -0.4959106E-04  0.3882704E+06  0.6935310E+04 -0.1237349E-01  0.4523396E-02 -0.5846517E+06 -0.1019575E+06 -0.8877841E-03 -0.1997948E-03 -0.6466342E-07 -0.1353328E-08
  0.4500000E+01 -0.2034505E-03  0.1907349E-04  0.3891170E+06  0.2110820E+04 -0.1000977E-01  0.1022387E-03 -0.5727755E+06 -0.1803633E+05 -0.4123264E-02 -0.3539920E-03 -0.8268075E-07  0.2582965E-09
  0.4600000E+01 -0.1114555E-02  0.1668930E-05  0.3921295E+06  0.8588649E+03 -0.2985415E-02  0.2632111E-02 -0.6256135E+06 -0.5019853E+05 -0.6475034E-02  0.6353855E-03 -0.6296550E-07  0.6828941E-08
  0.4700000E+01  0.8960481E-03 -0.2479553E-04  0.3931997E+06  0.2376394E+04 -0.1942736E-01 -0.2332211E-02 -0.6092823E+06 -0.6761139E+05 -0.1973903E-02 -0.1316071E-03 -0.7475350E-07 -0.6912160E-09
  0.4800000E+01  0.2835592E-02  0.1311302E-04  0.3935832E+06  0.8332970E+03  0.7624308E-01 -0.7007807E-04 -0.6063130E+06 -0.2371287E+05 -0.2644857E-02  0.3024936E-04 -0.1450341E-07  0.4405592E-08
  0.4900000E+01 -0.1793686E-02  0.4768372E-05  0.3955419E+06 -0.5395885E+03  0.2681810E-01 -0.1567369E-04 -0.6148269E+06  0.5539634E+04 -0.5680006E-02 -0.5675852E-04 -0.1639318E-07 -0.6384653E-09
  0.5000000E+01  0.2807617E-03  0.1573563E-04  0.3965653E+06  0.1782099E+04  0.5485840E-01  0.7530153E-03 -0.6141018E+06 -0.2979570E+05 -0.1953125E-03 -0.3097057E-03 -0.4479661E-07  0.1160515E-08
Zone t="Motion of body    1 in DoF   3",I=    50,F=POINT
  0.1000000E+00  0.3723145E-01  0.2197266E-02  0.2040863E-01 -0.2868772E-03  0.7943700E+07 -0.9051725E+02 -0.8262634E+01 -0.9822845E-04  0.1123047E+01  0.6730652E-01  0.4656613E-08  0.4365575E-10
  0.2000000E+00 -0.2441406E-01 -0.6389618E-03  0.2525330E-01 -0.4995465E-03  0.8478730E+07  0.8741692E+02 -0.2329407E+01 -0.5340576E-04  0.2737305E+02 -0.1570740E+00  0.2328306E-08  0.3637979E-10
  0.3000000E+00  0.8496093E+00 -0.3096008E-01 -0.9663899E-02  0.1098633E-02  0.9573168E+07  0.1135315E+05  0.1016622E+02 -0.1573181E-01 -0.1245768E+02  0.1752930E+00 -0.1552204E-07  0.2328306E-09
  0.4000000E+00 -0.1522217E+01  0.6115723E-01  0.4882812E-02 -0.1161957E-01  0.1193065E+08  0.1102751E+06 -0.1011230E+02 -0.1121216E+00  0.4589111E+02  0.4619141E+00 -0.2328306E-07  0.2328306E-09
  0.5000000E+00  0.1330078E+01  0.1394043E+00  0.5139160E-01 -0.9664917E-01  0.1839159E+08  0.1100859E+07 -0.9263763E+01 -0.6286621E+00 -0.2879639E+01  0.1210938E+01 -0.2235174E-07  0.3725290E-08
  0.6000000E+00  0.2056478E+01  0.2722656E+01  0.2543131E-03  0.8325195E+00  0.2776604E+08  0.2342231E+08  0.2793782E+02 -0.2056836E+02 -0.7942708E+00  0.8578125E+01  0.0000000E+00 -0.2980232E-07
  0.7000000E+00 -0.1623884E+01  0.3728638E+00 -0.1307896E-01  0.3273010E-02 -0.1336380E+08  0.8137635E+07  0.1057617E+02  0.1927246E+01 -0.5892857E+01  0.2160156E+01  0.3193106E-07  0.0000000E+00
  0.8000000E+00 -0.2282715E+00 -0.3098145E+00 -0.6744385E-01 -0.1210022E+00 -0.6441324E+07  0.3105999E+07  0.4674683E+01  0.4697266E+00 -0.1113281E+01  0.1890625E+01  0.2328306E-07  0.1862645E-08
  0.9000000E+00 -0.2739801E+00 -0.1088867E+00 -0.5984836E-01  0.1391602E-01 -0.3615893E+07  0.1739735E+07 -0.8210178E+01 -0.5422363E+00  0.8680556E-02  0.3054688E+01  0.2069606E-08  0.1862645E-08
  0.1000000E+01  0.2758789E+00 -0.1450195E+00  0.5673218E-01 -0.8670044E-01 -0.2090300E+07  0.1010203E+07 -0.8593750E-01  0.1756348E+01 -0.3992188E+01  0.6019531E+01 -0.6519258E-08 -0.7450581E-08
  0.1100000E+01  0.1364691E+00  0.3320312E-01  0.1417333E-01  0.1351929E-01 -0.1055698E+07  0.4923788E+06  0.9632457E-01  0.7104492E-01 -0.1470170E+01  0.2564453E+01 -0.3174963E-09 -0.1862645E-08
  0.1200000E+01 -0.1607259E-01 -0.1396484E+00  0.6739298E-02 -0.1629639E-01 -0.1870782E+06  0.1130164E+06  0.2819824E+00  0.4870605E-01  0.1341146E+01 -0.4345703E+00  0.1552204E-08  0.1862645E-08
  0.1300000E+01 -0.8901743E-01 -0.1906738E+00 -0.5047138E-03  0.2021790E-02  0.6677844E+06  0.2556321E+05  0.3767278E+00  0.6561279E-02  0.3822115E+01  0.1191650E+01  0.2149206E-08  0.1862645E-08
  0.1400000E+01  0.9119851E-01  0.3588867E+00 -0.1426663E-01 -0.1400757E-01  0.1319299E+07  0.6919318E+06 -0.2511161E-01 -0.7964783E+00 -0.2907366E+01  0.1632568E+01  0.5425786E-08 -0.1862645E-08
  0.1500000E+01 -0.2864583E+00  0.1340332E+00 -0.5613200E-01 -0.4638672E-02  0.1096201E+07  0.1550810E+07 -0.3391276E+01 -0.3269043E+00 -0.1125000E+01 -0.3421875E+01  0.2483527E-08  0.1862645E-08
  0.1600000E+01 -0.1135254E+00 -0.3411865E-01 -0.7324219E-02 -0.5728531E-01  0.7280693E+06  0.1378606E+07  0.1502686E+01 -0.4343262E+00  0.2832031E+00 -0.2531250E+01  0.4656613E-08 -0.5587935E-08
  0.1700000E+01 -0.4308364E-03 -0.6079102E-01  0.2380371E-01 -0.1356506E-01  0.7032688E+06  0.8998562E+06  0.1757812E+00 -0.3654785E+00  0.9696691E+00 -0.1974609E+01 -0.2191347E-08 -0.1862645E-08
  0.1800000E+01 -0.5242242E-01 -0.1562500E+00 -0.1890818E-01  0.3836060E-01  0.8389044E+06  0.5071066E+06  0.3173828E+00 -0.1638550E+01 -0.9114584E-01  0.9931641E+00  0.7761022E-09  0.1862645E-08
  0.1900000E+01 -0.3413251E-01  0.1054688E+00  0.6178994E-02 -0.2598572E-01  0.1006820E+07  0.2246683E+06  0.3276624E+01 -0.9848022E-01 -0.2384868E+00 -0.7465820E+00 -0.5054876E-09 -0.1862645E-08
  0.2000000E+01 -0.4495239E-01  0.3161621E-01 -0.7167816E-02 -0.5187988E-03  0.1194598E+07  0.4492537E+05  0.6600586E+01 -0.5073547E-01 -0.3125000E+00 -0.1317871E+01 -0.1629815E-08 -0.9313226E-09
  0.2100000E+01  0.2284459E-01  0.1046143E+00  0.1718794E-01 -0.5149841E-02  0.1389844E+07  0.7111257E+04  0.1721540E+01  0.9256363E-02 -0.3645833E+00  0.8049622E+00  0.8869739E-09  0.0000000E+00
  0.2200000E+01 -0.7130016E-01  0.5493164E-02  0.1252608E-01 -0.4562378E-02  0.1525655E+07  0.1729226E+06 -0.3750000E+01  0.2300568E+00 -0.2130682E-01 -0.1378906E+01 -0.5397438E-08  0.0000000E+00
  0.2300000E+01  0.1549762E-01 -0.2709961E-01 -0.1720926E-01 -0.1213837E-01  0.1542275E+07  0.3544909E+06 -0.2388757E+01 -0.2137756E+00  0.7880435E+00 -0.8740234E-01  0.4454152E-08  0.4656613E-09
  0.2400000E+01 -0.2634684E-01 -0.1867676E-01  0.1208623E-01 -0.9624481E-02  0.1524108E+07  0.3500058E+06  0.1208496E+00 -0.4959412E+00 -0.2278646E+00 -0.6230469E+00  0.0000000E+00 -0.4190952E-08
  0.2500000E+01 -0.8364258E-01 -0.7775879E-01 -0.2282104E-01 -0.2202606E-01  0.1530518E+07  0.2416221E+06  0.1027344E+00 -0.9677124E-01 -0.4187500E+00 -0.1057617E+01  0.1490116E-08  0.4656613E-08
  0.2600000E+01 -0.5880503E-01 -0.2453613E-01  0.8651294E-02  0.3646851E-02  0.1568130E+07  0.1214487E+06  0.1389724E-01 -0.1425323E+00 -0.2824519E+00 -0.3486328E+00 -0.2104431E-08  0.1396984E-08
  0.2700000E+01 -0.1072523E+00 -0.6634521E-01 -0.7120768E-03 -0.9117126E-02  0.1627668E+07  0.3114138E+05  0.1939381E+01  0.3347397E-01 -0.1024306E+01 -0.1101990E+01  0.1509088E-08  0.0000000E+00
  0.2800000E+01  0.9411948E-01  0.1725769E-01  0.8805139E-02  0.2689362E-03  0.1698057E+07  0.9850021E+03  0.1284180E+01  0.3172398E-02  0.7812500E+00  0.2024918E+00  0.3409306E-08  0.1164153E-09
  0.2900000E+01 -0.8860621E-02  0.4046631E-01  0.6246896E-02  0.3166199E-03  0.1748092E+07  0.6605202E+05  0.2074353E+00  0.2118683E-01 -0.6088362E+00  0.5333252E+00 -0.2248020E-08  0.0000000E+00
  0.3000000E+01  0.2372233E-01  0.8033371E-01  0.3321330E-02  0.2820492E-02  0.1759684E+07  0.1376404E+06 -0.4524740E+00 -0.2260132E+00 -0.4270833E+00  0.8681641E+00  0.2017866E-08 -0.2619345E-09
  0.3100000E+01  0.5997197E-01 -0.2319336E-02 -0.3617810E-03 -0.8815765E-02  0.1762250E+07  0.1348761E+06  0.9211190E+00  0.5187988E-03  0.6199597E+00 -0.4418945E-01 -0.1351920E-08 -0.2328306E-09
  0.3200000E+01 -0.4053116E-01  0.4229736E-01 -0.9316206E-02  0.2899170E-03  0.1775383E+07  0.8854769E+05 -0.4404297E+01  0.3468781E+00 -0.5029297E+00 -0.1220703E-02  0.3346941E-08  0.4656613E-09
  0.3300000E+01  0.1469930E-01 -0.1208496E-01 -0.4716064E-02 -0.5466461E-02  0.1797167E+07  0.3025224E+05  0.1478456E+01 -0.1377106E-01 -0.5113636E+00  0.1715088E-01 -0.2839828E-08  0.6984919E-09
  0.3400000E+01  0.1894782E-01 -0.9738922E-02  0.8173550E-02 -0.2861023E-04  0.1831153E+07  0.1762988E+03  0.9524356E+00  0.2337992E-03  0.5055147E+00 -0.4260020E+00  0.1677750E-08  0.7275958E-11
  0.3500000E+01  0.1220703E-01  0.4913330E-02  0.6920951E-03  0.3957748E-03  0.1797408E+07  0.2778460E+05 -0.2789062E+01  0.1726151E-02 -0.8035714E-01  0.1269836E+00  0.7317534E-09  0.1746230E-09
  0.3600000E+01  0.5228679E-01  0.2464294E-01 -0.3174676E-02 -0.3275871E-02  0.1812004E+07  0.5306305E+05 -0.8572049E-01  0.4604721E-01  0.9375000E+00  0.2475586E+00  0.1940256E-08  0.1164153E-09
  0.3700000E+01  0.3414670E-01  0.5493164E-03 -0.1329164E-01  0.2075195E-02  0.1822597E+07  0.4394321E+05 -0.2413429E+01  0.3725815E-01 -0.2533784E-01  0.2229614E+00 -0.5474666E-08  0.2328306E-09
  0.3800000E+01  0.4934211E-01  0.1876831E-01  0.1653019E-01 -0.2361298E-02  0.1838400E+07  0.1504249E+05  0.2074424E+01  0.1605225E-01 -0.4194079E+00  0.2845459E+00 -0.1807501E-08  0.2328306E-09
  0.3900000E+01  0.1158338E+00  0.5939484E-02  0.2139458E-01 -0.1146793E-03  0.1860783E+07  0.1757846E+04 -0.1857973E+01  0.4251003E-03  0.1338141E+01 -0.1191392E+00 -0.7761021E-09  0.0000000E+00
  0.4000000E+01  0.7356262E-01 -0.4189014E-02  0.1807117E-01 -0.1067936E-02  0.1877098E+07  0.2488902E+05  0.1118164E+00  0.2359009E-01  0.2179688E+01 -0.1768036E+00 -0.8149073E-09 -0.3819878E-10
  0.4100000E+01  0.9899605E-01  0.1693726E-02  0.1940378E-01 -0.2365112E-03  0.1883593E+07  0.3360783E+05 -0.2752954E+01 -0.1130104E+00  0.7164634E+00  0.6253052E-01  0.2669034E-08  0.1164153E-09
  0.4200000E+01  0.2117339E-01 -0.1358032E-02 -0.1714979E-01  0.2073288E-02  0.1889831E+07  0.2162289E+05  0.2258185E+01  0.5827713E-01  0.9523810E+00  0.1388702E+00 -0.3159845E-08 -0.2328306E-09
  0.4300000E+01  0.4514472E-01  0.1468658E-02  0.1443464E-01 -0.1451969E-03  0.1901322E+07  0.1113644E+04 -0.2490461E+01  0.1271039E-02  0.5886627E+00  0.3656597E+00 -0.6768333E-09 -0.1455192E-10
  0.4400000E+01  0.6530068E-01 -0.4912853E-02  0.1821865E-01 -0.3052652E-03  0.1914010E+07  0.9071998E+04 -0.4589844E+00 -0.6300449E-02  0.0000000E+00  0.1469841E+00  0.3545376E-08  0.0000000E+00
  0.4500000E+01 -0.2404785E-01 -0.2166748E-02 -0.8444045E-02  0.3552437E-03  0.1918819E+07  0.1362398E+05  0.1193576E+00 -0.3225350E-01 -0.1388889E-01  0.5453920E-01 -0.4397912E-08  0.2910383E-10
  0.4600000E+01 -0.5400285E-02  0.1846313E-02  0.1100706E-01 -0.2036095E-03  0.1971723E+07  0.7631772E+04 -0.1032609E+01 -0.3018618E-02  0.4619565E+00  0.1872368E+00 -0.1822153E-08  0.0000000E+00
  0.4700000E+01  0.1931698E-01  0.3565788E-02 -0.4768372E-02  0.4279613E-04  0.1984112E+07  0.5395997E+03  0.3607048E+00 -0.1273796E-02 -0.3191490E+00  0.4104066E-01  0.8916919E-09  0.7275958E-11
  0.4800000E+01  0.1089732E-01 -0.4871845E-02 -0.9306272E-03  0.6152689E-04  0.1991102E+07  0.4708717E+04 -0.4427083E+00  0.1788139E-03  0.1067708E+01 -0.9378433E-01 -0.2570838E-08  0.9094947E-11
  0.4900000E+01 -0.1859704E-01 -0.1399994E-02 -0.9752390E-02 -0.1001358E-04  0.1994181E+07  0.9306072E+04  0.6445312E+00  0.5208492E-02  0.8290816E-01  0.2050018E-01  0.6652304E-09  0.2910383E-10
  0.5000000E+01  0.3066406E-01  0.1335144E-04  0.1000977E-02 -0.1323223E-04  0.2001707E+07  0.1059897E+04 -0.2087891E+01  0.2074137E-02  0.6562500E+00 -0.1905084E-01 -0.2654269E-08  0.0000000E+00
Zone t="Motion of body    1 in DoF   4",I=    50,F=POINT
  0.1000000E+00 -0.7781982E-02  0.4656613E-07  0.1124540E+07  0.1094157E+02  0.8819580E+00  0.1015142E-06  0.7935282E+08  0.6544785E+01 -0.6933594E+00 -0.1192093E-06 -0.6967457E-06  0.7394014E-09