VARIABLES="w (rad/s)"
"abs(F   1   1)" "angle(F   1   1)"
"abs(F   1   2)" "angle(F   1   2)"
"abs(F   1   3)" "angle(F   1   3)"
"abs(F   1   4)" "angle(F   1   4)"
"abs(F   1   5)" "angle(F   1   5)"
"abs(F   1   6)" "angle(F   1   6)"
Zone t="FKforce - beta =   0.000",I=    50,F=POINT
  0.3100000E+00  0.8116434E+05 -0.1570798E+01  0.1108401E+00 -0.2159619E-02  0.7364120E+06 -0.1533313E-08  0.4175427E-01  0.3124325E+01  0.3222379E+05 -0.1570794E+01  0.1978247E-07 -0.2876631E+01
  0.4057143E+00  0.1106627E+06 -0.1570797E+01  0.5616182E-01  0.8116925E-02  0.7015467E+06  0.2566525E-08  0.1344605E+00 -0.6241488E-03  0.4477383E+05 -0.1570797E+01  0.7965267E-07 -0.3116744E+01
  0.5014286E+00  0.1445214E+06 -0.1570797E+01  0.6481834E-01  0.3127291E+01  0.6586833E+06  0.2918865E-08  0.1147217E+01  0.3141526E+01  0.5993927E+05 -0.1570795E+01  0.2939573E-07  0.6340695E-01
  0.5971428E+00  0.1841316E+06 -0.1570797E+01  0.3992312E-02 -0.1120290E+00  0.6092722E+06  0.3606378E-08  0.1400156E+00 -0.3137942E+01  0.7878256E+05 -0.1570798E+01  0.6585445E-08  0.2999696E+01
  0.6928571E+00  0.2296984E+06 -0.1570796E+01  0.3743753E-01 -0.3139351E+01  0.5552976E+06  0.4286659E-08  0.2521702E+00  0.3136389E+01  0.1020803E+06 -0.1570794E+01  0.1366579E-07 -0.4026546E+00
  0.7885715E+00  0.2793461E+06 -0.1570796E+01  0.2915775E-01 -0.6375720E-01  0.4988038E+06  0.8443051E-08  0.6087707E+00 -0.4461571E-02  0.1298562E+06 -0.1570796E+01  0.2863557E-07  0.2025353E+01
  0.8842857E+00  0.3299682E+06 -0.1570796E+01  0.7954678E-01 -0.2537112E-01  0.4414721E+06 -0.1589918E-08  0.1748983E+00 -0.4885670E-02  0.1615672E+06 -0.1570796E+01  0.1599091E-07 -0.2802997E+00
  0.9800000E+00  0.3786743E+06 -0.1570796E+01  0.6172411E-02 -0.2983963E+01  0.3846992E+06  0.2459181E-08  0.1765178E+00 -0.6829078E-02  0.1966029E+06 -0.1570796E+01  0.2667004E-07 -0.9779512E+00
  0.1075714E+01  0.4232056E+06 -0.1570796E+01  0.1268074E-01  0.2941719E+01  0.3297685E+06 -0.2267290E-07  0.1616540E-01  0.3061273E+01  0.2343980E+06 -0.1570797E+01  0.4705080E-07  0.2739950E+01
  0.1171429E+01  0.4617687E+06 -0.1570796E+01  0.1075796E-01 -0.2598254E+01  0.2778382E+06 -0.4778013E-07  0.2538573E+00  0.3126926E+01  0.2742810E+06 -0.1570796E+01  0.1106129E-07 -0.7109094E+00
  0.1267143E+01  0.4929012E+06 -0.1570796E+01  0.4508398E-02 -0.2749145E+01  0.2298678E+06 -0.3226102E-07  0.1207552E+00 -0.2666540E-01  0.3153322E+06 -0.1570796E+01  0.3281260E-07 -0.2300974E+01
  0.1362857E+01  0.5154405E+06 -0.1570796E+01  0.8184374E-01 -0.3120337E+01  0.1865692E+06  0.1733868E-07  0.1196790E+00 -0.3112647E+01  0.3562996E+06 -0.1570796E+01  0.2910383E-07  0.1287002E+01
  0.1458571E+01  0.5285419E+06 -0.1570796E+01  0.5512313E-01  0.1744009E-01  0.1483828E+06  0.5758702E-08  0.8663785E-01 -0.3119400E+01  0.3955866E+06 -0.1570796E+01  0.1341759E-07  0.2466852E+01
  0.1554286E+01  0.5316884E+06 -0.1570796E+01  0.1391724E-01 -0.2115336E+00  0.1154900E+06  0.1083402E-06  0.2500598E+00  0.9031166E-02  0.4312728E+06 -0.1570796E+01  0.3139331E-07  0.1934775E+01
  0.1650000E+01  0.5246975E+06 -0.1570796E+01  0.7737610E-02  0.1689892E+01  0.8783257E+05 -0.4169421E-08  0.1448415E+00 -0.3127370E+01  0.4611927E+06 -0.1570796E+01  0.4973265E-08 -0.2856862E+01
  0.1745714E+01  0.5077177E+06 -0.1570796E+01  0.3877777E-02  0.1341804E+01  0.6515125E+05  0.2342056E-09  0.6533583E-01  0.1079903E+00  0.4830659E+06 -0.1570796E+01  0.2278520E-07 -0.2023590E+01
  0.1841429E+01  0.4812131E+06 -0.1570796E+01  0.9674833E-02 -0.2259578E+01  0.4702964E+05 -0.4217856E-07  0.8382257E-01  0.3101443E+01  0.4946592E+06 -0.1570796E+01  0.1969622E-08 -0.1239700E+01
  0.1937143E+01  0.4459518E+06 -0.1570796E+01  0.5505808E-02 -0.1962496E+01  0.3294441E+05  0.1199604E-06  0.4460233E-01  0.2061343E-01  0.4939961E+06 -0.1570796E+01  0.3821988E-07 -0.1408652E+01
  0.2032857E+01  0.4029798E+06 -0.1570796E+01  0.1085055E-01  0.2879133E+01  0.2231313E+05  0.1815616E-06  0.7319000E-01  0.3100980E+01  0.4795648E+06 -0.1570796E+01  0.1304683E-07  0.1535097E+01
  0.2128572E+01  0.3536040E+06 -0.1570796E+01  0.5735239E-02 -0.3095509E+00  0.1453953E+05 -0.7529941E-07  0.6879342E-01 -0.3084113E+01  0.4505252E+06 -0.1570796E+01  0.5375313E-08  0.3080528E+00
  0.2224286E+01  0.2993620E+06 -0.1570796E+01  0.3865627E-02  0.2317108E+01  0.9050007E+04  0.7629389E-07  0.2725737E-01  0.3003159E+01  0.4068942E+06 -0.1570796E+01  0.7454218E-08 -0.1823351E+01
  0.2320000E+01  0.2419937E+06 -0.1570796E+01  0.6279066E-02 -0.1565936E+01  0.5321908E+04  0.2759647E-07  0.3203987E-01 -0.2966574E+01  0.3496615E+06 -0.1570796E+01  0.7454218E-08 -0.1823351E+01
  0.2415714E+01  0.1834010E+06 -0.1570796E+01  0.4486133E-02  0.4676837E-02  0.2901493E+04  0.3176731E-06  0.5171607E-02 -0.2733268E+01  0.2808593E+06 -0.1570796E+01  0.1675127E-07 -0.1459372E+01
  0.2511429E+01  0.1255961E+06 -0.1570796E+01  0.8380243E-03  0.1433808E+01  0.1412696E+04  0.1621444E-06  0.5447733E-02  0.3068237E+01  0.2035199E+06 -0.1570796E+01  0.3451597E-08 -0.2806509E+01
  0.2607143E+01  0.7063488E+05 -0.1570796E+01  0.3618306E-02 -0.3024299E+01  0.5577513E+03 -0.9190475E-07  0.1278068E-01  0.2368075E+00  0.1215582E+06 -0.1570796E+01  0.6419754E-08  0.1643396E+01
  0.2702857E+01  0.2053212E+05 -0.1570796E+01  0.8121312E-02 -0.1532564E+00  0.1117138E+03 -0.1963456E-05  0.2536744E-01  0.9954520E-01  0.3954886E+05 -0.1570797E+01  0.1298853E-07  0.1317122E+01
  0.2798571E+01  0.2284134E+05  0.1570797E+01  0.4683610E-02 -0.2886342E+01  0.8708152E+02  0.3141590E+01  0.9917947E-02  0.2965145E+01  0.3758566E+05  0.1570795E+01  0.1975633E-08 -0.2356194E+01
  0.2894286E+01  0.5787525E+05  0.1570796E+01  0.4333200E-02  0.2677945E+01  0.1485931E+03  0.3141592E+01  0.3479950E-01  0.3120270E+01  0.1049579E+06  0.1570796E+01  0.3634023E-07  0.1538756E+01
  0.2990000E+01  0.8334482E+05  0.1570796E+01  0.4008011E-02 -0.2901346E+01  0.1429815E+03 -0.3141592E+01  0.2976930E-01 -0.1018747E-01  0.1581464E+06  0.1570796E+01  0.1896185E-07 -0.1759161E+01
  0.3085714E+01  0.9853136E+05  0.1570796E+01  0.1858349E-02 -0.3477187E+00  0.1116014E+03 -0.3141592E+01  0.8446268E-02 -0.3137930E+01  0.1936378E+06  0.1570796E+01  0.2346426E-08 -0.1695151E+01
  0.3181428E+01  0.1033268E+06  0.1570796E+01  0.1984248E-02  0.1660969E+00  0.7630618E+02  0.3141593E+01  0.2744163E-01 -0.5778267E-01  0.2092352E+06  0.1570796E+01  0.1544117E-07 -0.1668965E+01
  0.3277143E+01  0.9830301E+05  0.1570796E+01  0.3112438E-02  0.2956697E+01  0.4673580E+02  0.3141593E+01  0.8637229E-02 -0.3037630E+01  0.2043851E+06  0.1570796E+01  0.1026833E-07 -0.1638873E+01
  0.3372857E+01  0.8473196E+05  0.1570796E+01  0.4182893E-02  0.2836858E+01  0.2560533E+02 -0.3141593E+01  0.7366900E-02 -0.2790743E+00  0.1803729E+06  0.1570796E+01  0.2293116E-08 -0.1989021E+01
  0.3468571E+01  0.6453929E+05  0.1570796E+01  0.2474163E-02  0.3183376E+00  0.1224059E+02 -0.3141593E+01  0.1259893E-02 -0.1266332E+00  0.1403381E+06  0.1570796E+01  0.9208592E-08  0.1621386E+01
  0.3564286E+01  0.4018558E+05  0.1570796E+01  0.1410769E-02 -0.6694623E+00  0.4725040E+01 -0.3141593E+01  0.5358357E-02 -0.3034328E+01  0.8908128E+05  0.1570796E+01  0.2894624E-08 -0.2644884E+00
  0.3660000E+01  0.1447008E+05  0.1570797E+01  0.2083048E-02 -0.2718906E+01  0.1045357E+01 -0.3141593E+01  0.1663440E-01 -0.3111281E+01  0.3265163E+05  0.1570796E+01  0.4216743E-08 -0.1681454E+01
  0.3755714E+01  0.9728757E+04 -0.1570796E+01  0.6811323E-02  0.3049614E+01  0.4158053E+00 -0.8063297E-07  0.1971504E-02  0.2551207E+01  0.2227430E+05 -0.1570796E+01  0.5143397E-08  0.1480136E+01
  0.3851429E+01  0.2975788E+05 -0.1570796E+01  0.3413172E-02  0.7831483E-01  0.7636632E+00  0.4878185E-08  0.1367180E-01  0.3074566E+01  0.6916423E+05 -0.1570796E+01  0.6063663E-08 -0.1628425E+01
  0.3947143E+01  0.4350237E+05 -0.1570796E+01  0.9818794E-03 -0.2961913E+01  0.6571881E+00 -0.2097356E-06  0.1824079E-02 -0.5035137E-01  0.1024710E+06 -0.1570796E+01  0.4408534E-08 -0.1006599E+01
  0.4042857E+01  0.4966532E+05 -0.1570796E+01  0.3193485E-02  0.1911356E-01  0.4355721E+00  0.1197369E-06  0.1709983E-01 -0.3127320E+01  0.1184276E+06 -0.1570796E+01  0.3211460E-08  0.2330559E+01
  0.4138572E+01  0.4796602E+05 -0.1570796E+01  0.2067918E-02  0.1844809E-01  0.2409411E+00  0.2667094E-06  0.1790350E-02 -0.2838728E+01  0.1156694E+06 -0.1570796E+01  0.5430497E-08  0.5404195E+00
  0.4234286E+01  0.3921371E+05 -0.1570796E+01  0.1161755E-02  0.2754379E+01  0.1112868E+00  0.4184336E-07  0.2596786E-02  0.3132782E+01  0.9554923E+05 -0.1570796E+01  0.6895090E-08  0.1774814E+01
  0.4330000E+01  0.2522539E+05 -0.1570796E+01  0.2100185E-03 -0.2559887E+01  0.3984926E-01 -0.4382088E-08  0.3144138E-02 -0.2814253E+01  0.6205718E+05 -0.1570796E+01  0.5455474E-08 -0.2108471E+01
  0.4425714E+01  0.8578605E+04 -0.1570796E+01  0.1047480E-02  0.3493933E+00  0.7350766E-02  0.1266974E-05  0.1980993E-02 -0.2889955E+00  0.2129273E+05 -0.1570796E+01  0.1541789E-07 -0.1311167E+01
  0.4521429E+01  0.7780982E+04  0.1570795E+01  0.8028647E-03  0.6656817E-01  0.3811084E-02  0.3141590E+01  0.6456558E-02 -0.3035041E+01  0.1947283E+05  0.1570796E+01  0.5825421E-08  0.1530818E+01
  0.4617143E+01  0.2102650E+05  0.1570796E+01  0.7494133E-03  0.2894762E+01  0.5441534E-02  0.3141591E+01  0.1276988E-02 -0.9574553E-01  0.5302691E+05  0.1570796E+01  0.1227740E-07 -0.1737504E+01
  0.4712857E+01  0.2895250E+05  0.1570796E+01  0.3406847E-03  0.2547379E+01  0.3960797E-02  0.3141592E+01  0.4220781E-02 -0.2959836E+01  0.7354007E+05  0.1570796E+01  0.3770491E-08  0.1415800E+01
  0.4808571E+01  0.3039671E+05  0.1570796E+01  0.1152948E-02  0.3971421E-01  0.2174547E-02  0.3141593E+01  0.2609870E-02 -0.4678953E-01  0.7772619E+05  0.1570796E+01  0.6756102E-08 -0.1605265E+01
  0.4904285E+01  0.2548673E+05  0.1570796E+01  0.3857940E-03 -0.4282641E+00  0.9423565E-03  0.3141593E+01  0.1122520E-02 -0.4575853E+00  0.6557985E+05  0.1570796E+01  0.6440830E-08 -0.1462135E+01
  0.5000000E+01  0.1563867E+05  0.1570796E+01  0.4181968E-03 -0.1331349E+01  0.2957179E-03  0.3141591E+01  0.2238759E-02 -0.9898972E-01  0.4047634E+05  0.1570797E+01  0.7941933E-08  0.1453259E+01
