VARIABLES="X" "Y" "Z" "NX" "NY" "NZ" "A"
 ZONE N=        1872 , E=         468  , F=FEPOINT,ET=QUADRILATERAL
   0.2414815E+01   0.6470476E+00  -0.5000000E+01   0.0000000E+00   0.0000000E+00   0.0000000E+00   0.0000000E+00
   0.2414815E+01   0.6470476E+00  -0.4666667E+01   0.0000000E+00   0.0000000E+00   0.0000000E+00   0.0000000E+00
   0.2500000E+01   0.0000000E+00  -0.5000000E+01   0.0000000E+00   0.0000000E+00   0.0000000E+00   0.0000000E+00
   0.2500000E+01   0.0000000E+00  -0.4666667E+01   0.0000000E+00   0.0000000E+00   0.0000000E+00   0.0000000E+00
   0.2414815E+01   0.6470476E+00  -0.4666667E+01   0.0000000E+00   0.0000000E+00   0.0000000E+00   0.0000000E+00
   0.2414815E+01   0.6470476E+00  -0.4333333E+01   0.0000000E+00   0.0000000E+00   0.0000000E+00   0.0000000E+00
   0.2500000E+01   0.0000000E+00  -0.4666667E+01   0.0000000E+00   0.0000000E+00   0.0000000E+00   0.0000000E+00
   0.2500000E+01   0.0000000E+00  -0.4333333E+01   0.0000000E+00   0.0000000E+00   0.0000000E+00   0.0000000E+00
   0.2414815E+01   0.6470476E+00  -0.4333333E+01   0.0000000E+00   0.0000000E+00   0.0000000E+00   0.0000000E+00
   0.2414815E+01   0.6470476E+00  -0.4000000E+01   0.0000000E+00   0.0000000E+00   0.0000000E+00   0.0000000E+00
   0.2500000E+01   0.0000000E+00  -0.4333333E+01   0.0000000E+00   0.0000000E+00   0.0000000E+00   0.0000000E+00
   0.2500000E+01   0.0000000E+00  -0.4000000E+01   0.0000000E+00   0.0000000E+00   0.0000000E+00   0.0000000E+00
   0.2414815E+01   0.6470476E+00  -0.4000000E+01   0.0000000E+00   0.0000000E+00   0.0000000E+00   0.0000000E+00
   0.2414815E+01   0.6470476E+00  -0.3666667E+01   0.0000000E+00   0.0000000E+00   0.0000000E+00   0.0000000E+00
   0.2500000E+01   0.0000000E+00  -0.4000000E+01   0.0000000E+00   0.0000000E+00   0.0000000E+00   0.0000000E+00
   0.2500000E+01   0.0000000E+00  -0.3666667E+01   0.0000000E+00   0.0000000E+00   0.0000000E+00   0.0000000E+00
   0.2414815E+01   0.6470476E+00  -0.3666667E+01   0.0000000E+00   0.0000000E+00   0.0000000E+00   0.0000000E+00
   0.2414815E+01   0.6470476E+00  -0.3333333E+01   0.0000000E+00   0.0000000E+00   0.0000000E+00   0.0000000E+00
   0.2500000E+01   0.0000000E+00  -0.3666667E+01   0.0000000E+00   0.0000000E+00   0.0000000E+00   0.0000000E+00
   0.2500000E+01   0.0000000E+00  -0.3333333E+01   0.0000000E+00   0.0000000E+00   0.0000000E+00   0.0000000E+00
   0.2414815E+01   0.6470476E+00  -0.3333333E+01   0.0000000E+00   0.0000000E+00   0.0000000E+00   0.0000000E+00
   0.2414815E+01   0.6470476E+00  -0.3000000E+01   0.0000000E+00   0.0000000E+00   0.0000000E+00   0.0000000E+00
   0.2500000E+01   0.0000000E+00  -0.3333333E+01   0.0000000E+00   0.0000000E+00   0.0000000E+00   0.0000000E+00
   0.2500000E+01   0.0000000E+00  -0.3000000E+01   0.0000000E+00   0.0000000E+00   0.0000000E+00   0.0000000E+00
   0.2414815E+01   0.6470476E+00  -0.3000000E+01   0.0000000E+00   0.0000000E+00   0.0000000E+00   0.0000000E+00
   0.2414815E+01   0.6470476E+00  -0.2666667E+01   0.0000000E+00   0.0000000E+00   0.0000000E+00   0.0000000E+00
   0.2500000E+01   0.0000000E+00  -0.3000000E+01   0.0000000E+00   0.0000000E+00   0.0000000E+00   0.0000000E+00
   0.2500000E+01   0.0000000E+00  -0.2666667E+01   0.0000000E+00   0.0000000E+00   0.0000000E+00   0.0000000E+00
   0.2414815E+01   0.6470476E+00  -0.2666667E+01   0.0000000E+00   0.0000000E+00   0.0000000E+00   0.0000000E+00
   0.2414815E+01   0.6470476E+00  -0.2333333E+01   0.0000000E+00   0.0000000E+00   0.0000000E+00   0.0000000E+00
   0.2500000E+01   0.0000000E+00  -0.2666667E+01   0.0000000E+00   0.0000000E+00   0.0000000E+00   0.0000000E+00
   0.2500000E+01   0.0000000E+00  -0.2333333E+01   0.0000000E+00   0.0000000E+00   0.0000000E+00   0.0000000E+00
   0.2414815E+01   0.6470476E+00  -0.2333333E+01   0.0000000E+00   0.0000000E+00   0.0000000E+00   0.0000000E+00
   0.2414815E+01   0.6470476E+00  -0.2000000E+01   0.0000000E+00   0.0000000E+00   0.0000000E+00   0.0000000E+00
   0.2500000E+01   0.0000000E+00  -0.2333333E+01   0.0000000E+00   0.0000000E+00   0.0000000E+00   0.0000000E+00
   0.2500000E+01   0.0000000E+00  -0.2000000E+01   0.0000000E+00   0.0000000E+00   0.0000000E+00   0.0000000E+00
   0.2414815E+01   0.6470476E+00  -0.2000000E+01   0.0000000E+00   0.0000000E+00   0.0000000E+00   0.0000000E+00
   0.2414815E+01   0.6470476E+00  -0.1666667E+01   0.0000000E+00   0.0000000E+00   0.0000000E+00   0.0000000E+00
   0.2500000E+01   0.0000000E+00  -0.2000000E+01   0.0000000E+00   0.0000000E+00   0.0000000E+00   0.0000000E+00
   0.2500000E+01   0.0000000E+00  -0.1666667E+01   0.0000000E+00   0.0000000E+00   0.0000000E+00   0.0000000E+00
   0.2414815E+01   0.6470476E+00  -0.1666667E+01   0.0000000E+00   0.0000000E+00   0.0000000E+00   0.0000000E+00
   0.2414815E+01   0.6470476E+00  -0.1333333E+01   0.0000000E+00   0.0000000E+00   0.0000000E+00   0.0000000E+00
   0.2500000E+01   0.0000000E+00  -0.1666667E+01   0.0000000E+00   0.0000000E+00   0.0000000E+00   0.0000000E+00
   0.2500000E+01   0.0000000E+00  -0.1333333E+01   0.0000000E+00   0.0000000E+00   0.0000000E+00   0.0000000E+00
   0.2414815E+01   0.6470476E+00  -0.1333333E+01   0.0000000E+00   0.0000000E+00   0.0000000E+00   0.0000000E+00
   0.2414815E+01   0.6470476E+00  -0.1000000E+01   0.0000000E+00   0.0000000E+00   0.0000000E+00   0.0000000E+00
   0.2500000E+01   0.0000000E+00  -0.1333333E+01   0.0000000E+00   0.0000000E+00   0.0000000E+00   0.0000000E+00
   0.2500000E+01   0.0000000E+00  -0.1000000E+01   0.0000000E+00   0.0000000E+00   0.0000000E+00   0.0000000E+00
   0.2414815E+01   0.6470476E+00  -0.1000000E+01   0.0000000E+00   0.0000000E+00   0.0000000E+00   0.0000000E+00
   0.2414815E+01   0.6470476E+00  -0.6666667E+00   0.0000000E+00   0.0000000E+00   0.0000000E+00   0.0000000E+00
   0.2500000E+01   0.0000000E+00  -0.1000000E+01   0.0000000E+00   0.0000000E+00   0.0000000E+00   0.0000000E+00
   0.2500000E+01   0.0000000E+00  -0.6666667E+00   0.0000000E+00   0.0000000E+00   0.0000000E+00   0.0000000E+00
   0.2414815E+01   0.6470476E+00  -0.6666667E+00   0.0000000E+00   0.0000000E+00   0.0000000E+00   0.0000000E+00
   0.2414815E+01   0.6470476E+00  -0.3333333E+00   0.0000000E+00   0.0000000E+00   0.0000000E+00   0.0000000E+00
   0.2500000E+01   0.0000000E+00  -0.6666667E+00   0.0000000E+00   0.0000000E+00   0.0000000E+00   0.0000000E+00
   0.2500000E+01   0.0000000E+00  -0.3333333E+00   0.0000000E+00   0.0000000E+00   0.0000000E+00   0.0000000E+00
   0.2414815E+01   0.6470476E+00  -0.3333333E+00   0.0000000E+00   0.0000000E+00   0.0000000E+00   0.0000000E+00
   0.2414815E+01   0.6470476E+00   0.0000000E+00   0.0000000E+00   0.0000000E+00   0.0000000E+00   0.0000000E+00
   0.2500000E+01   0.0000000E+00  -0.3333333E+00   0.0000000E+00   0.0000000E+00   0.0000000E+00   0.0000000E+00
   0.2500000E+01   0.0000000E+00   0.0000000E+00   0.0000000E+00   0.0000000E+00   0.0000000E+00   0.0000000E+00
   0.2165064E+01   0.1250000E+01  -0.5000000E+01   0.0000000E+00   0.0000000E+00   0.0000000E+00   0.0000000E+00
   0.2165064E+01   0.1250000E+01  -0.4666667E+01   0.0000000E+00   0.0000000E+00   0.0000000E+00   0.0000000E+00
   0.2414815E+01   0.6470476E+00  -0.5000000E+01   0.0000000E+00   0.0000000E+00   0.0000000E+00   0.0000000E+00
   0.2414815E+01   0.6470476E+00  -0.4666667E+01   0.0000000E+00   0.0000000E+00   0.0000000E+00   0.0000000E+00
   0.2165064E+01   0.1250000E+01  -0.4666667E+01   0.0000000E+00   0.0000000E+00   0.0000000E+00   0.0000000E+00
   0.2165064E+01   0.1250000E+01  -0.4333333E+01   0.0000000E+00   0.0000000E+00   0.0000000E+00   0.0000000E+00
   0.2414815E+01   0.6470476E+00  -0.4666667E+01   0.0000000E+00   0.0000000E+00   0.0000000E+00   0.0000000E+00
   0.2414815E+01   0.6470476E+00  -0.4333333E+01   0.0000000E+00   0.0000000E+00   0.0000000E+00   0.0000000E+00
   0.2165064E+01   0.1250000E+01  -0.4333333E+01   0.0000000E+00   0.0000000E+00   0.0000000E+00   0.0000000E+00
   0.2165064E+01   0.1250000E+01  -0.4000000E+01   0.0000000E+00   0.0000000E+00   0.0000000E+00   0.0000000E+00
   0.2414815E+01   0.6470476E+00  -0.4333333E+01   0.0000000E+00   0.0000000E+00   0.0000000E+00   0.0000000E+00
   0.2414815E+01   0.6470476E+00  -0.4000000E+01   0.0000000E+00   0.0000000E+00   0.0000000E+00   0.0000000E+00
   0.2165064E+01   0.1250000E+01  -0.4000000E+01   0.0000000E+00   0.0000000E+00   0.0000000E+00   0.0000000E+00
   0.2165064E+01   0.1250000E+01  -0.3666667E+01   0.0000000E+00   0.0000000E+00   0.0000000E+00   0.0000000E+00
   0.2414815E+01   0.6470476E+00  -0.4000000E+01   0.0000000E+00   0.0000000E+00   0.0000000E+00   0.0000000E+00
   0.2414815E+01   0.6470476E+00  -0.3666667E+01   0.0000000E+00   0.0000000E+00   0.0000000E+00   0.0000000E+00
   0.2165064E+01   0.1250000E+01  -0.3666667E+01   0.0000000E+00   0.0000000E+00   0.0000000E+00   0.0000000E+00
   0.2165064E+01   0.1250000E+01  -0.3333333E+01   0.0000000E+00   0.0000000E+00   0.0000000E+00   0.0000000E+00
   0.2414815E+01   0.6470476E+00  -0.3666667E+01   0.0000000E+00   0.0000000E+00   0.0000000E+00   0.0000000E+00
   0.2414815E+01   0.6470476E+00  -0.3333333E+01   0.0000000E+00   0.0000000E+00   0.0000000E+00   0.0000000E+00
   0.2165064E+01   0.1250000E+01  -0.3333333E+01   0.0000000E+00   0.0000000E+00   0.0000000E+00   0.0000000E+00
   0.2165064E+01   0.1250000E+01  -0.3000000E+01   0.0000000E+00   0.0000000E+00   0.0000000E+00   0.0000000E+00
   0.2414815E+01   0.6470476E+00  -0.3333333E+01   0.0000000E+00   0.0000000E+00   0.0000000E+00   0.0000000E+00
   0.2414815E+01   0.6470476E+00  -0.3000000E+01   0.0000000E+00   0.0000000E+00   0.0000000E+00   0.0000000E+00
   0.2165064E+01   0.1250000E+01  -0.3000000E+01   0.0000000E+00   0.0000000E+00   0.0000000E+00   0.0000000E+00
   0.2165064E+01   0.1250000E+01  -0.2666667E+01   0.0000000E+00   0.0000000E+00   0.0000000E+00   0.0000000E+00
   0.2414815E+01   0.6470476E+00  -0.3000000E+01   0.0000000E+00   0.0000000E+00   0.0000000E+00   0.0000000E+00
   0.2414815E+01   0.6470476E+00  -0.2666667E+01   0.0000000E+00   0.0000000E+00   0.0000000E+00   0.0000000E+00
   0.2165064E+01   0.1250000E+01  -0.2666667E+01   0.0000000E+00   0.0000000E+00   0.0000000E+00   0.0000000E+00
   0.2165064E+01   0.1250000E+01  -0.2333333E+01   0.0000000E+00   0.0000000E+00   0.0000000E+00   0.0000000E+00
   0.2414815E+01   0.6470476E+00  -0.2666667E+01   0.0000000E+00   0.0000000E+00   0.0000000E+00   0.0000000E+00
   0.2414815E+01   0.6470476E+00  -0.2333333E+01   0.0000000E+00   0.0000000E+00   0.0000000E+00   0.0000000E+00
   0.2165064E+01   0.1250000E+01  -0.2333333E+01   0.0000000E+00   0.0000000E+00   0.0000000E+00   0.0000000E+00
   0.2165064E+01   0.1250000E+01  -0.2000000E+01   0.0000000E+00   0.0000000E+00   0.0000000E+00   0.0000000E+00
   0.2414815E+01   0.6470476E+00  -0.2333333E+01   0.0000000E+00   0.0000000E+00   0.0000000E+00   0.0000000E+00
   0.2414815E+01   0.6470476E+00  -0.2000000E+01   0.0000000E+00   0.0000000E+00   0.0000000E+00   0.0000000E+00
   0.2165064E+01   0.1250000E+01  -0.2000000E+01   0.0000000E+00   0.0000000E+00   0.0000000E+00   0.0000000E+00
   0.2165064E+01   0.1250000E+01  -0.1666667E+01   0.0000000E+00   0.0000000E+00   0.0000000E+00   0.0000000E+00
   0.2414815E+01   0.6470476E+00  -0.2000000E+01   0.0000000E+00   0.0000000E+00   0.0000000E+00   0.0000000E+00
   0.2414815E+01   0.6470476E+00  -0.1666667E+01   0.0000000E+00   0.0000000E+00   0.0000000E+00   0.0000000E+00
   0.2165064E+01   0.1250000E+01  -0.1666667E+01   0.0000000E+00   0.0000000E+00   0.0000000E+00   0.0000000E+00
   0.2165064E+01   0.1250000E+01  -0.1333333E+01   0.0000000E+00   0.0000000E+00   0.0000000E+00   0.0000000E+00
   0.2414815E+01   0.6470476E+00  -0.1666667E+01   0.0000000E+00   0.0000000E+00   0.0000000E+00   0.0000000E+00
   0.2414815E+01   0.6470476E+00  -0.1333333E+01   0.0000000E+00   0.0000000E+00   0.0000000E+00   0.0000000E+00
   0.2165064E+01   0.1250000E+01  -0.1333333E+01   0.0000000E+00   0.0000000E+00   0.0000000E+00   0.0000000E+00
   0.2165064E+01   0.1250000E+01  -0.1000000E+01   0.0000000E+00   0.0000000E+00   0.0000000E+00   0.0000000E+00
   0.2414815E+01   0.6470476E+00  -0.1333333E+01   0.0000000E+00   0.0000000E+00   0.0000000E+00   0.0000000E+00
   0.2414815E+01   0.6470476E+00  -0.1000000E+01   0.0000000E+00   0.0000000E+00   0.0000000E+00   0.0000000E+00
   0.2165064E+01   0.1250000E+01  -0.1000000E+01   0.0000000E+00   0.0000000E+00   0.0000000E+00   0.0000000E+00
   0.2165064E+01   0.1250000E+01  -0.6666667E+00   0.0000000E+00   0.0000000E+00   0.0000000E+00   0.0000000E+00
   0.2414815E+01   0.6470476E+00  -0.1000000E+01   0.0000000E+00   0.0000000E+00   0.0000000E+00   0.0000000E+00
   0.2414815E+01   0.6470476E+00  -0.6666667E+00   0.0000000E+00   0.0000000E+00   0.0000000E+00   0.0000000E+00
   0.2165064E+01   0.1250000E+01  -0.6666667E+00   0.0000000E+00   0.0000000E+00   0.0000000E+00   0.0000000E+00
   0.2165064E+01   0.1250000E+01  -0.3333333E+00   0.0000000E+00   0.0000000E+00   0.0000000E+00   0.0000000E+00
   0.2414815E+01   0.6470476E+00  -0.6666667E+00   0.0000000E+00   0.0000000E+00   0.0000000E+00   0.0000000E+00
   0.2414815E+01   0.6470476E+00  -0.3333333E+00   0.0000000E+00   0.0000000E+00   0.0000000E+00   0.0000000E+00
   0.2165064E+01   0.1250000E+01  -0.3333333E+00   0.0000000E+00   0.0000000E+00   0.0000000E+00   0.0000000E+00
   0.2165064E+01   0.1250000E+01   0.0000000E+00   0.0000000E+00   0.0000000E+00   0.0000000E+00   0.0000000E+00
   0.2414815E+01   0.6470476E+00  -0.3333333E+00   0.0000000E+00   0.0000000E+00   0.0000000E+00   0.0000000E+00
   0.2414815E+01   0.6470476E+00   0.0000000E+00   0.0000000E+00   0.0000000E+00   0.0000000E+00   0.0000000E+00
   0.1767767E+01   0.1767767E+01  -0.5000000E+01   0.0000000E+00   0.0000000E+00   0.0000000E+00   0.0000000E+00
   0.1767767E+01   0.1767767E+01  -0.4666667E+01   0.0000000E+00   0.0000000E+00   0.0000000E+00   0.0000000E+00
   0.2165064E+01   0.1250000E+01  -0.5000000E+01   0.0000000E+00   0.0000000E+00   0.0000000E+00   0.0000000E+00
   0.2165064E+01   0.1250000E+01  -0.4666667E+01   0.0000000E+00   0.0000000E+00   0.0000000E+00   0.0000000E+00
   0.1767767E+01   0.1767767E+01  -0.4666667E+01   0.0000000E+00   0.0000000E+00   0.0000000E+00   0.0000000E+00
   0.1767767E+01   0.1767767E+01  -0.4333333E+01   0.0000000E+00   0.0000000E+00   0.0000000E+00   0.0000000E+00
   0.2165064E+01   0.1250000E+01  -0.4666667E+01   0.0000000E+00   0.0000000E+00   0.0000000E+00   0.0000000E+00
   0.2165064E+01   0.1250000E+01  -0.4333333E+01   0.0000000E+00   0.0000000E+00   0.0000000E+00   0.0000000E+00
   0.1767767E+01   0.1767767E+01  -0.4333333E+01   0.0000000E+00   0.0000000E+00   0.0000000E+00   0.0000000E+00
   0.1767767E+01   0.1767767E+01  -0.4000000E+01   0.0000000E+00   0.0000000E+00   0.0000000E+00   0.0000000E+00
   0.2165064E+01   0.1250000E+01  -0.4333333E+01   0.0000000E+00   0.0000000E+00   0.0000000E+00   0.0000000E+00
   0.2165064E+01   0.1250000E+01  -0.4000000E+01   0.0000000E+00   0.0000000E+00   0.0000000E+00   0.0000000E+00
   0.1767767E+01   0.1767767E+01  -0.4000000E+01   0.0000000E+00   0.0000000E+00   0.0000000E+00   0.0000000E+00
   0.1767767E+01   0.1767767E+01  -0.3666667E+01   0.0000000E+00   0.0000000E+00   0.0000000E+00   0.0000000E+00
   0.2165064E+01   0.1250000E+01  -0.4000000E+01   0.0000000E+00   0.0000000E+00   0.0000000E+00   0.0000000E+00
   0.2165064E+01   0.1250000E+01  -0.3666667E+01   0.0000000E+00   0.0000000E+00   0.0000000E+00   0.0000000E+00
   0.1767767E+01   0.1767767E+01  -0.3666667E+01   0.0000000E+00   0.0000000E+00   0.0000000E+00   0.0000000E+00
   0.1767767E+01   0.1767767E+01  -0.3333333E+01   0.0000000E+00   0.0000000E+00   0.0000000E+00   0.0000000E+00
   0.2165064E+01   0.1250000E+01  -0.3666667E+01   0.0000000E+00   0.0000000E+00   0.0000000E+00   0.0000000E+00
   0.2165064E+01   0.1250000E+01  -0.3333333E+01   0.0000000E+00   0.0000000E+00   0.0000000E+00   0.0000000E+00
   0.1767767E+01   0.1767767E+01  -0.3333333E+01   0.0000000E+00   0.0000000E+00   0.0000000E+00   0.0000000E+00
   0.1767767E+01   0.1767767E+01  -0.3000000E+01   0.0000000E+00   0.0000000E+00   0.0000000E+00   0.0000000E+00
   0.2165064E+01   0.1250000E+01  -0.3333333E+01   0.0000000E+00   0.0000000E+00   0.0000000E+00   0.0000000E+00
   0.2165064E+01   0.1250000E+01  -0.3000000E+01   0.0000000E+00   0.0000000E+00   0.0000000E+00   0.0000000E+00
   0.1767767E+01   0.1767767E+01  -0.3000000E+01   0.0000000E+00   0.0000000E+00   0.0000000E+00   0.0000000E+00
   0.1767767E+01   0.1767767E+01  -0.2666667E+01   0.0000000E+00   0.0000000E+00   0.0000000E+00   0.0000000E+00
   0.2165064E+01   0.1250000E+01  -0.3000000E+01   0.0000000E+00   0.0000000E+00   0.0000000E+00   0.0000000E+00
   0.2165064E+01   0.1250000E+01  -0.2666667E+01   0.0000000E+00   0.0000000E+00   0.0000000E+00   0.0000000E+00
   0.1767767E+01   0.1767767E+01  -0.2666667E+01   0.0000000E+00   0.0000000E+00   0.0000000E+00   0.0000000E+00
   0.1767767E+01   0.1767767E+01  -0.2333333E+01   0.0000000E+00   0.0000000E+00   0.0000000E+00   0.0000000E+00
   0.2165064E+01   0.1250000E+01  -0.2666667E+01   0.0000000E+00   0.0000000E+00   0.0000000E+00   0.0000000E+00
   0.2165064E+01   0.1250000E+01  -0.2333333E+01   0.0000000E+00   0.0000000E+00   0.0000000E+00   0.0000000E+00
   0.1767767E+01   0.1767767E+01  -0.2333333E+01   0.0000000E+00   0.0000000E+00   0.0000000E+00   0.0000000E+00
   0.1767767E+01   0.1767767E+01  -0.2000000E+01   0.0000000E+00   0.0000000E+00   0.0000000E+00   0.0000000E+00
   0.2165064E+01   0.1250000E+01  -0.2333333E+01   0.0000000E+00   0.0000000E+00   0.0000000E+00   0.0000000E+00
   0.2165064E+01   0.1250000E+01  -0.2000000E+01   0.0000000E+00   0.0000000E+00   0.0000000E+00   0.0000000E+00
   0.1767767E+01   0.1767767E+01  -0.2000000E+01   0.0000000E+00   0.0000000E+00   0.0000000E+00   0.0000000E+00
   0.1767767E+01   0.1767767E+01  -0.1666667E+01   0.0000000E+00   0.0000000E+00   0.0000000E+00   0.0000000E+00
   0.2165064E+01   0.1250000E+01  -0.2000000E+01   0.0000000E+00   0.0000000E+00   0.0000000E+00   0.0000000E+00
   0.2165064E+01   0.1250000E+01  -0.1666667E+01   0.0000000E+00   0.0000000E+00   0.0000000E+00   0.0000000E+00
   0.1767767E+01   0.1767767E+01  -0.1666667E+01   0.0000000E+00   0.0000000E+00   0.0000000E+00   0.0000000E+00
   0.1767767E+01   0.1767767E+01  -0.1333333E+01   0.0000000E+00   0.0000000E+00   0.0000000E+00   0.0000000E+00
   0.2165064E+01   0.1250000E+01  -0.1666667E+01   0.0000000E+00   0.0000000E+00   0.0000000E+00   0.0000000E+00
   0.2165064E+01   0.1250000E+01  -0.1333333E+01   0.0000000E+00   0.0000000E+00   0.0000000E+00   0.0000000E+00
   0.1767767E+01   0.1767767E+01  -0.1333333E+01   0.0000000E+00   0.0000000E+00   0.0000000E+00   0.0000000E+00
   0.1767767E+01   0.1767767E+01  -0.1000000E+01   0.0000000E+00   0.0000000E+00   0.0000000E+00   0.0000000E+00
   0.2165064E+01   0.1250000E+01  -0.1333333E+01   0.0000000E+00   0.0000000E+00   0.0000000E+00   0.0000000E+00
   0.2165064E+01   0.1250000E+01  -0.1000000E+01   0.0000000E+00   0.0000000E+00   0.0000000E+00   0.0000000E+00
   0.1767767E+01   0.1767767E+01  -0.1000000E+01   0.0000000E+00   0.0000000E+00   0.0000000E+00   0.0000000E+00
   0.1767767E+01   0.1767767E+01  -0.6666667E+00   0.0000000E+00   0.0000000E+00   0.0000000E+00   0.0000000E+00
   0.2165064E+01   0.1250000E+01  -0.1000000E+01   0.0000000E+00   0.0000000E+00   0.0000000E+00   0.0000000E+00
   0.2165064E+01   0.1250000E+01  -0.6666667E+00   0.0000000E+00   0.0000000E+00   0.0000000E+00   0.0000000E+00
   0.1767767E+01   0.1767767E+01  -0.6666667E+00   0.0000000E+00   0.0000000E+00   0.0000000E+00   0.0000000E+00
   0.1767767E+01   0.1767767E+01  -0.3333333E+00   0.0000000E+00   0.0000000E+00   0.0000000E+00   0.0000000E+00
   0.2165064E+01   0.1250000E+01  -0.6666667E+00   0.0000000E+00   0.0000000E+00   0.0000000E+00   0.0000000E+00
   0.2165064E+01   0.1250000E+01  -0.3333333E+00   0.0000000E+00   0.0000000E+00   0.0000000E+00   0.0000000E+00
   0.1767767E+01   0.1767767E+01  -0.3333333E+00   0.0000000E+00   0.0000000E+00   0.0000000E+00   0.0000000E+00
   0.1767767E+01   0.1767767E+01   0.0000000E+00   0.0000000E+00   0.0000000E+00   0.0000000E+00   0.0000000E+00
   0.2165064E+01   0.1250000E+01  -0.3333333E+00   0.0000000E+00   0.0000000E+00   0.0000000E+00   0.0000000E+00
   0.2165064E+01   0.1250000E+01   0.0000000E+00   0.0000000E+00   0.0000000E+00   0.0000000E+00   0.0000000E+00
   0.1250000E+01   0.2165064E+01  -0.5000000E+01   0.0000000E+00   0.0000000E+00   0.0000000E+00   0.0000000E+00
   0.1250000E+01   0.2165064E+01  -0.4666667E+01   0.0000000E+00   0.0000000E+00   0.0000000E+00   0.0000000E+00
   0.1767767E+01   0.1767767E+01  -0.5000000E+01   0.0000000E+00   0.0000000E+00   0.0000000E+00   0.0000000E+00
   0.1767767E+01   0.1767767E+01  -0.4666667E+01   0.0000000E+00   0.0000000E+00   0.0000000E+00   0.0000000E+00
   0.1250000E+01   0.2165064E+01  -0.4666667E+01   0.0000000E+00   0.0000000E+00   0.0000000E+00   0.0000000E+00
   0.1250000E+01   0.2165064E+01  -0.4333333E+01   0.0000000E+00   0.0000000E+00   0.0000000E+00   0.0000000E+00
   0.1767767E+01   0.1767767E+01  -0.4666667E+01   0.0000000E+00   0.0000000E+00   0.0000000E+00   0.0000000E+00
   0.1767767E+01   0.1767767E+01  -0.4333333E+01   0.0000000E+00   0.0000000E+00   0.0000000E+00   0.0000000E+00
   0.1250000E+01   0.2165064E+01  -0.4333333E+01   0.0000000E+00   0.0000000E+00   0.0000000E+00   0.0000000E+00
   0.1250000E+01   0.2165064E+01  -0.4000000E+01   0.0000000E+00   0.0000000E+00   0.0000000E+00   0.0000000E+00
   0.1767767E+01   0.1767767E+01  -0.4333333E+01   0.0000000E+00   0.0000000E+00   0.0000000E+00   0.0000000E+00
   0.1767767E+01   0.1767767E+01  -0.4000000E+01   0.0000000E+00   0.0000000E+00   0.0000000E+00   0.0000000E+00
   0.1250000E+01   0.2165064E+01  -0.4000000E+01   0.0000000E+00   0.0000000E+00   0.0000000E+00   0.0000000E+00
   0.1250000E+01   0.2165064E+01  -0.3666667E+01   0.0000000E+00   0.0000000E+00   0.0000000E+00   0.0000000E+00
   0.1767767E+01   0.1767767E+01  -0.4000000E+01   0.0000000E+00   0.0000000E+00   0.0000000E+00   0.0000000E+00
   0.1767767E+01   0.1767767E+01  -0.3666667E+01   0.0000000E+00   0.0000000E+00   0.0000000E+00   0.0000000E+00
   0.1250000E+01   0.2165064E+01  -0.3666667E+01   0.0000000E+00   0.0000000E+00   0.0000000E+00   0.0000000E+00
   0.1250000E+01   0.2165064E+01  -0.3333333E+01   0.0000000E+00   0.0000000E+00   0.0000000E+00   0.0000000E+00
   0.1767767E+01   0.1767767E+01  -0.3666667E+01   0.0000000E+00   0.0000000E+00   0.0000000E+00   0.0000000E+00
   0.1767767E+01   0.1767767E+01  -0.3333333E+01   0.0000000E+00   0.0000000E+00   0.0000000E+00   0.0000000E+00
   0.1250000E+01   0.2165064E+01  -0.3333333E+01   0.0000000E+00   0.0000000E+00   0.0000000E+00   0.0000000E+00
   0.1250000E+01   0.2165064E+01  -0.3000000E+01   0.0000000E+00   0.0000000E+00   0.0000000E+00   0.0000000E+00
   0.1767767E+01   0.1767767E+01  -0.3333333E+01   0.0000000E+00   0.0000000E+00   0.0000000E+00   0.0000000E+00
   0.1767767E+01   0.1767767E+01  -0.3000000E+01   0.0000000E+00   0.0000000E+00   0.0000000E+00   0.0000000E+00
   0.1250000E+01   0.2165064E+01  -0.3000000E+01   0.0000000E+00   0.0000000E+00   0.0000000E+00   0.0000000E+00
   0.1250000E+01   0.2165064E+01  -0.2666667E+01   0.0000000E+00   0.0000000E+00   0.0000000E+00   0.0000000E+00
   0.1767767E+01   0.1767767E+01  -0.3000000E+01   0.0000000E+00   0.0000000E+00   0.0000000E+00   0.0000000E+00
   0.1767767E+01   0.1767767E+01  -0.2666667E+01   0.0000000E+00   0.0000000E+00   0.0000000E+00   0.0000000E+00
   0.1250000E+01   0.2165064E+01  -0.2666667E+01   0.0000000E+00   0.0000000E+00   0.0000000E+00   0.0000000E+00
   0.1250000E+01   0.2165064E+01  -0.2333333E+01   0.0000000E+00   0.0000000E+00   0.0000000E+00   0.0000000E+00
   0.1767767E+01   0.1767767E+01  -0.2666667E+01   0.0000000E+00   0.0000000E+00   0.0000000E+00   0.0000000E+00
   0.1767767E+01   0.1767767E+01  -0.2333333E+01   0.0000000E+00   0.0000000E+00   0.0000000E+00   0.0000000E+00
   0.1250000E+01   0.2165064E+01  -0.2333333E+01   0.0000000E+00   0.0000000E+00   0.0000000E+00   0.0000000E+00
   0.1250000E+01   0.2165064E+01  -0.2000000E+01   0.0000000E+00   0.0000000E+00   0.0000000E+00   0.0000000E+00
   0.1767767E+01   0.1767767E+01  -0.2333333E+01   0.0000000E+00   0.0000000E+00   0.0000000E+00   0.0000000E+00
   0.1767767E+01   0.1767767E+01  -0.2000000E+01   0.0000000E+00   0.0000000E+00   0.0000000E+00   0.0000000E+00
   0.1250000E+01   0.2165064E+01  -0.2000000E+01   0.0000000E+00   0.0000000E+00   0.0000000E+00   0.0000000E+00
   0.1250000E+01   0.2165064E+01  -0.1666667E+01   0.0000000E+00   0.0000000E+00   0.0000000E+00   0.0000000E+00
   0.1767767E+01   0.1767767E+01  -0.2000000E+01   0.0000000E+00   0.0000000E+00   0.0000000E+00   0.0000000E+00
   0.1767767E+01   0.1767767E+01  -0.1666667E+01   0.0000000E+00   0.0000000E+00   0.0000000E+00   0.0000000E+00
   0.1250000E+01   0.2165064E+01  -0.1666667E+01   0.0000000E+00   0.0000000E+00   0.0000000E+00   0.0000000E+00
   0.1250000E+01   0.2165064E+01  -0.1333333E+01   0.0000000E+00   0.0000000E+00   0.0000000E+00   0.0000000E+00
   0.1767767E+01   0.1767767E+01  -0.1666667E+01   0.0000000E+00   0.0000000E+00   0.0000000E+00   0.0000000E+00
   0.1767767E+01   0.1767767E+01  -0.1333333E+01   0.0000000E+00   0.0000000E+00   0.0000000E+00   0.0000000E+00
   0.1250000E+01   0.2165064E+01  -0.1333333E+01   0.0000000E+00   0.0000000E+00   0.0000000E+00   0.0000000E+00
   0.1250000E+01   0.2165064E+01  -0.1000000E+01   0.0000000E+00   0.0000000E+00   0.0000000E+00   0.0000000E+00
   0.1767767E+01   0.1767767E+01  -0.1333333E+01   0.0000000E+00   0.0000000E+00   0.0000000E+00   0.0000000E+00
   0.1767767E+01   0.1767767E+01  -0.1000000E+01   0.0000000E+00   0.0000000E+00   0.0000000E+00   0.0000000E+00
   0.1250000E+01   0.2165064E+01  -0.1000000E+01   0.0000000E+00   0.0000000E+00   0.0000000E+00   0.0000000E+00
   0.1250000E+01   0.2165064E+01  -0.6666667E+00   0.0000000E+00   0.0000000E+00   0.0000000E+00   0.0000000E+00
   0.1767767E+01   0.1767767E+01  -0.1000000E+01   0.0000000E+00   0.0000000E+00   0.0000000E+00   0.0000000E+00
   0.1767767E+01   0.1767767E+01  -0.6666667E+00   0.0000000E+00   0.0000000E+00   0.0000000E+00   0.0000000E+00
   0.1250000E+01   0.2165064E+01  -0.6666667E+00   0.0000000E+00   0.0000000E+00   0.0000000E+00   0.0000000E+00
   0.1250000E+01   0.2165064E+01  -0.3333333E+00   0.0000000E+00   0.0000000E+00   0.0000000E+00   0.0000000E+00
   0.1767767E+01   0.1767767E+01  -0.6666667E+00   0.0000000E+00   0.0000000E+00   0.0000000E+00   0.0000000E+00
   0.1767767E+01   0.1767767E+01  -0.3333333E+00   0.0000000E+00   0.0000000E+00   0.0000000E+00   0.0000000E+00
   0.1250000E+01   0.2165064E+01  -0.3333333E+00   0.0000000E+00   0.0000000E+00   0.0000000E+00   0.0000000E+00
   0.1250000E+01   0.2165064E+01   0.0000000E+00   0.0000000E+00   0.0000000E+00   0.0000000E+00   0.0000000E+00
   0.1767767E+01   0.1767767E+01  -0.3333333E+00   0.0000000E+00   0.0000000E+00   0.0000000E+00   0.0000000E+00
   0.1767767E+01   0.1767767E+01   0.0000000E+00   0.0000000E+00   0.0000000E+00   0.0000000E+00   0.0000000E+00
   0.6470476E+00   0.2414815E+01  -0.5000000E+01   0.0000000E+00   0.0000000E+00   0.0000000E+00   0.0000000E+00
   0.6470476E+00   0.2414815E+01  -0.4666667E+01   0.0000000E+00   0.0000000E+00   0.0000000E+00   0.0000000E+00
   0.1250000E+01   0.2165064E+01  -0.5000000E+01   0.0000000E+00   0.0000000E+00   0.0000000E+00   0.0000000E+00
   0.1250000E+01   0.2165064E+01  -0.4666667E+01   0.0000000E+00   0.0000000E+00   0.0000000E+00   0.0000000E+00
   0.6470476E+00   0.2414815E+01  -0.4666667E+01   0.0000000E+00   0.0000000E+00   0.0000000E+00   0.0000000E+00
   0.6470476E+00   0.2414815E+01  -0.4333333E+01   0.0000000E+00   0.0000000E+00   0.0000000E+00   0.0000000E+00
   0.1250000E+01   0.2165064E+01  -0.4666667E+01   0.0000000E+00   0.0000000E+00   0.0000000E+00   0.0000000E+00
   0.1250000E+01   0.2165064E+01  -0.4333333E+01   0.0000000E+00   0.0000000E+00   0.0000000E+00   0.0000000E+00
   0.6470476E+00   0.2414815E+01  -0.4333333E+01   0.0000000E+00   0.0000000E+00   0.0000000E+00   0.0000000E+00
   0.6470476E+00   0.2414815E+01  -0.4000000E+01   0.0000000E+00   0.0000000E+00   0.0000000E+00   0.0000000E+00
   0.1250000E+01   0.2165064E+01  -0.4333333E+01   0.0000000E+00   0.0000000E+00   0.0000000E+00   0.0000000E+00
   0.1250000E+01   0.2165064E+01  -0.4000000E+01   0.0000000E+00   0.0000000E+00   0.0000000E+00   0.0000000E+00
   0.6470476E+00   0.2414815E+01  -0.4000000E+01   0.0000000E+00   0.0000000E+00   0.0000000E+00   0.0000000E+00
   0.6470476E+00   0.2414815E+01  -0.3666667E+01   0.0000000E+00   0.0000000E+00   0.0000000E+00   0.0000000E+00
   0.1250000E+01   0.2165064E+01  -0.4000000E+01   0.0000000E+00   0.0000000E+00   0.0000000E+00   0.0000000E+00
   0.1250000E+01   0.2165064E+01  -0.3666667E+01   0.0000000E+00   0.0000000E+00   0.0000000E+00   0.0000000E+00
   0.6470476E+00   0.2414815E+01  -0.3666667E+01   0.0000000E+00   0.0000000E+00   0.0000000E+00   0.0000000E+00
   0.6470476E+00   0.2414815E+01  -0.3333333E+01   0.0000000E+00   0.0000000E+00   0.0000000E+00   0.0000000E+00
   0.1250000E+01   0.2165064E+01  -0.3666667E+01   0.0000000E+00   0.0000000E+00   0.0000000E+00   0.0000000E+00
   0.1250000E+01   0.2165064E+01  -0.3333333E+01   0.0000000E+00   0.0000000E+00   0.0000000E+00   0.0000000E+00
   0.6470476E+00   0.2414815E+01  -0.3333333E+01   0.0000000E+00   0.0000000E+00   0.0000000E+00   0.0000000E+00
   0.6470476E+00   0.2414815E+01  -0.3000000E+01   0.0000000E+00   0.0000000E+00   0.0000000E+00   0.0000000E+00
   0.1250000E+01   0.2165064E+01  -0.3333333E+01   0.0000000E+00   0.0000000E+00   0.0000000E+00   0.0000000E+00
   0.1250000E+01   0.2165064E+01  -0.3000000E+01   0.0000000E+00   0.0000000E+00   0.0000000E+00   0.0000000E+00