VARIABLES="Period (s)" "|Fx| (N/m)" "|Fy| (N/m)" "|Fz| (N/m)" "|Cx| (N)" "|Cy| (N)" "|Cz| (N)" "ang(Fx) (°)" "ang(Fy) (°)" "ang(Fz) (°)" "ang(Cx) (°)" "ang(Cy) (°)" "ang(Cz) (°)"
Zone t="Corps  1"
Zone t="Diffraction force - beta =   0.000 deg",I=    50,F=POINT
 0.1000  0.786565E+04  0.529391E-02  0.193903E+06  0.158451E+00  0.942881E+04  0.212156E-08    0.00  -90.00  -89.99   89.94 -180.00   81.92
 0.2000  0.160651E+05  0.187911E-02  0.190094E+06  0.173585E+00  0.191982E+05  0.118843E-07    0.00  -95.87  -89.97  -89.95 -180.00   89.33
 0.3000  0.249736E+05  0.120243E-01  0.183816E+06  0.101020E+00  0.296799E+05  0.304319E-08   -0.01  -88.77  -89.93  -89.57 -180.01 -114.28
 0.4000  0.351162E+05  0.455170E-01  0.175175E+06  0.117482E+00  0.414157E+05  0.882300E-09   -0.02 -269.38  -89.86  -89.99 -180.02 -100.45
 0.5000  0.472168E+05  0.616133E-02  0.164384E+06  0.588603E-01  0.550864E+05  0.150312E-08   -0.04  -98.60  -89.71 -269.98 -180.04 -268.34
 0.6000  0.620495E+05  0.721704E-03  0.151864E+06  0.306304E-01  0.714737E+05  0.430756E-08   -0.11 -194.70  -89.44  -85.49 -180.11 -107.70
 0.7000  0.800668E+05  0.571881E-01  0.138243E+06  0.982796E-01  0.908205E+05  0.612386E-08   -0.25  -89.94  -89.01 -267.17 -180.25 -243.47
 0.8000  0.101037E+06  0.255096E-01  0.124143E+06  0.132518E+00  0.112400E+06  0.378703E-08   -0.53 -266.91  -88.39  -89.75 -180.53 -200.35
 0.9000  0.124042E+06  0.895787E-02  0.109999E+06  0.190870E+00  0.135137E+06  0.172678E-08   -1.00   83.15  -87.58   89.70 -181.00 -192.16
 1.0000  0.148468E+06  0.113083E-01  0.961150E+05  0.105553E+00  0.157572E+06  0.458771E-08   -1.75  -53.29  -86.57   88.94 -181.75 -125.71
 1.1000  0.173339E+06  0.562342E-01  0.829088E+05  0.152373E+00  0.178792E+06  0.190096E-08   -2.85 -263.67  -85.33  -90.47 -182.85 -109.68
 1.2000  0.197786E+06  0.915547E-02  0.705171E+05  0.709212E-01  0.197375E+06  0.407796E-08   -4.36  -57.88  -83.83  -90.61 -184.36 -160.40
 1.3000  0.220600E+06  0.178496E-01  0.591102E+05  0.306405E+00  0.211809E+06  0.119918E-07   -6.33 -218.42  -82.03 -269.14 -186.32   -0.76
 1.4000  0.239919E+06  0.100170E-01  0.489649E+05  0.166537E+00  0.220928E+06  0.434993E-08   -8.72   -5.90  -79.95   89.72 -188.71 -122.36
 1.5000  0.254208E+06  0.707014E-02  0.399757E+05  0.519888E-01  0.223166E+06  0.521605E-08  -11.40  -66.20  -77.47   82.34 -191.39 -206.78
 1.6000  0.261984E+06  0.144999E-01  0.322624E+05  0.311146E-01  0.217795E+06  0.103574E-07  -14.17 -135.18  -74.70  -74.33 -194.16  -43.06
 1.7000  0.262637E+06  0.186651E-01  0.257195E+05  0.162973E-01  0.205480E+06  0.391552E-08  -16.76  -27.09  -71.52 -202.52 -196.74  -84.88
 1.8000  0.256566E+06  0.687471E-02  0.202314E+05  0.443719E-01  0.187277E+06  0.471770E-08  -18.87 -172.81  -67.87 -102.92 -198.82 -189.23
 1.9000  0.245057E+06  0.161673E-01  0.157622E+05  0.149470E-01  0.165588E+06  0.349246E-08  -20.25  -79.23  -64.01   66.73 -200.19 -270.00
 2.0000  0.229806E+06  0.262798E-01  0.121217E+05  0.606416E-01  0.142356E+06  0.597480E-08  -20.73  -37.74  -59.54   71.11 -200.64  -59.56
 2.1000  0.212738E+06  0.237074E-01  0.921520E+04  0.298911E-01  0.119394E+06  0.130059E-07  -20.29 -193.62  -54.70 -241.78 -200.16 -206.48
 2.2000  0.195012E+06  0.942036E-02  0.693416E+04  0.787303E-01  0.978780E+05  0.930904E-08  -18.92   51.77  -49.48 -256.28 -198.74  -39.16
 2.3000  0.177659E+06  0.137529E-01  0.516590E+04  0.161837E-01  0.784823E+05  0.131920E-07  -16.65 -201.26  -43.45 -149.52 -196.43 -156.60
 2.4000  0.161245E+06  0.414509E-02  0.381250E+04  0.124294E-01  0.615044E+05  0.530816E-08  -13.55 -264.72  -36.77   32.11 -193.28 -157.09
 2.5000  0.146020E+06  0.730004E-02  0.280148E+04  0.966701E-02  0.468970E+05  0.188990E-08   -9.69   10.10  -29.30 -103.46 -189.44   30.42
 2.6000  0.132131E+06  0.812553E-02  0.208018E+04  0.576117E-02  0.345065E+05  0.170148E-07   -5.14   89.57  -20.25  -65.22 -184.96 -177.35
 2.7000  0.119566E+06  0.531225E-02  0.157957E+04  0.367284E-02  0.241217E+05  0.285396E-08    0.04  -91.65  -10.16 -175.27 -180.00   11.77
 2.8000  0.108253E+06  0.118789E-01  0.125572E+04  0.128685E-02  0.154984E+05  0.287524E-08    5.80   41.17    0.28   -5.21 -174.70 -148.24
 2.9000  0.981100E+05  0.522400E-02  0.117260E+04  0.217807E-02  0.838402E+04  0.187714E-08   12.11   37.94   11.17   45.14 -169.41  -60.26
 3.0000  0.890190E+05  0.643291E-02  0.163196E+04  0.486027E-03  0.256248E+04  0.106576E-07   18.93   43.46   20.70   33.42 -167.02 -186.27
 3.1000  0.808760E+05  0.761642E-03  0.564987E+04  0.300476E-02  0.218584E+04  0.477870E-08   26.25    2.30 -209.96 -109.80   32.70 -267.21
 3.2000  0.735959E+05  0.375705E-04  0.437550E+03  0.575681E-03  0.594644E+04  0.497326E-09   34.05 -203.96 -192.41 -240.99   35.47  -69.44
 3.3000  0.670907E+05  0.469339E-02  0.179586E+03  0.236903E-02  0.891012E+04  0.350988E-08   42.32 -164.92 -220.56   20.60   41.86   84.29
 3.4000  0.613291E+05  0.331569E-02  0.148120E+03  0.630464E-03  0.110832E+05  0.485241E-08   51.07  -77.32 -227.07 -121.66   49.06 -226.03
 3.5000  0.561604E+05  0.241462E-02  0.117496E+03  0.644168E-03  0.126694E+05  0.197649E-08   60.26 -169.07 -234.49 -184.24   56.75  -13.63
 3.6000  0.515289E+05  0.291934E-02  0.839154E+02  0.844941E-03  0.137289E+05  0.166096E-08   69.95  -28.74 -246.14  -66.42   65.12  -78.89
 3.7000  0.474024E+05  0.251678E-02  0.534347E+02  0.177709E-02  0.144884E+05  0.265978E-08   80.00  -42.30 -259.44  -38.06   74.61   66.80
 3.8000  0.439323E+05  0.201510E-02  0.309013E+02  0.158551E-02  0.146639E+05  0.192702E-08 -269.19 -255.75 -267.97  -32.72   84.01  -64.98
 3.9000  0.382203E+05  0.308687E-02  0.121379E+02  0.378610E-03  0.919714E+04  0.413835E-08   86.61   -3.13   89.90 -261.44   76.18 -169.92
 4.0000  0.378627E+05  0.180060E-02  0.327345E+01  0.269402E-02  0.141646E+05  0.205960E-08 -249.43   89.51 -130.15  -85.84 -256.43   47.29
 4.1000  0.353886E+05  0.573791E-03  0.186472E+02  0.221233E-02  0.139336E+05  0.118721E-08 -238.06 -127.71 -122.78 -251.33 -244.44  -11.31
 4.2000  0.330884E+05  0.100384E-02  0.354031E+02  0.811608E-03  0.135606E+05  0.613428E-09 -226.82 -109.54 -130.97 -261.66 -231.85 -247.69
 4.3000  0.308058E+05  0.163465E-03  0.484603E+02  0.138067E-02  0.132588E+05  0.300489E-08 -215.35 -235.94 -138.27 -101.73 -218.58  -21.60
 4.4000  0.286633E+05  0.617569E-03  0.781899E+02  0.111185E-02  0.130465E+05  0.133529E-08 -203.49 -243.59 -150.16 -235.26 -205.63 -249.59
 4.5000  0.266232E+05  0.122559E-02  0.138327E+03  0.881838E-03  0.129008E+05  0.458411E-08 -191.51   39.47 -167.28 -250.91 -192.23 -172.06
 4.6000  0.246868E+05  0.949637E-03  0.355873E+03  0.113030E-02  0.127814E+05  0.143998E-08 -179.20 -231.20 -178.63   66.62 -179.17   14.04
 4.7000  0.228338E+05  0.140265E-02  0.911361E+03  0.494247E-03  0.126498E+05  0.436713E-08 -166.50  -59.25   24.00 -160.40 -166.40 -181.53
 4.8000  0.211002E+05  0.385190E-03  0.159378E+03  0.677309E-03  0.124636E+05  0.234643E-08 -153.38 -262.03    5.37 -148.64 -153.92  -29.74
 4.9000  0.194942E+05  0.156155E-02  0.486602E+02  0.173438E-02  0.121941E+05  0.409817E-08 -140.04 -130.34  -11.81   11.16 -141.59 -191.47
 5.0000  0.179120E+05  0.308838E-03  0.207942E+02  0.161756E-03  0.118729E+05  0.525210E-08 -126.77   57.13  -37.26  -10.61 -129.66   -5.09
