VARIABLES="w (rad/s)"
"abs(F   1   1)" "angle(F   1   1)"
"abs(F   1   2)" "angle(F   1   2)"
"abs(F   1   3)" "angle(F   1   3)"
"abs(F   1   4)" "angle(F   1   4)"
"abs(F   1   5)" "angle(F   1   5)"
"abs(F   1   6)" "angle(F   1   6)"
Zone t="FKforce - beta =   0.000",I=    50,F=POINT
  0.1000000E+00  0.4433342E+04 -0.1570790E+01  0.5280156E-02  0.1526254E-01  0.1942394E+06  0.5867197E-09  0.1585541E+00 -0.3141421E+01  0.5282909E+04  0.1570799E+01  0.2105007E-08 -0.3046395E+01
  0.2000000E+00  0.9033735E+04 -0.1570799E+01  0.1801060E-02 -0.2409491E-01  0.1914064E+06  0.5530528E-09  0.1738587E+00 -0.4305994E-03  0.1072988E+05  0.1570802E+01  0.1187741E-07 -0.3118925E+01
  0.3000000E+00  0.1400126E+05 -0.1570797E+01  0.1214604E-01 -0.2591075E-02  0.1867200E+06  0.7150516E-10  0.1017304E+00  0.3327958E-03  0.1653846E+05  0.1570793E+01  0.2803652E-08  0.8314123E-01
  0.4000000E+00  0.1960376E+05 -0.1570797E+01  0.4513555E-01 -0.3140156E+01  0.1802476E+06  0.2264511E-08  0.1168671E+00 -0.1876877E-03  0.2297329E+05  0.1570795E+01  0.9533448E-09  0.2153577E+00
  0.5000000E+00  0.2619551E+05 -0.1570797E+01  0.6776294E-02 -0.2026749E-01  0.1721201E+06  0.1108150E-09  0.5550062E-01 -0.3128997E+01  0.3037732E+05  0.1570795E+01  0.1648482E-08 -0.2990957E+01
  0.6000000E+00  0.3414880E+05 -0.1570798E+01  0.3331041E-03  0.2729182E+01  0.1625639E+06 -0.2018062E-08  0.3662749E-01 -0.1869574E-01  0.3908023E+05  0.1570796E+01  0.4210712E-08  0.9691763E-01
  0.7000000E+00  0.4361417E+05 -0.1570797E+01  0.5749562E-01 -0.4179912E-02  0.1518968E+06 -0.2988536E-08  0.9208756E-01  0.3137512E+01  0.4911797E+05  0.1570797E+01  0.5588011E-08  0.3136384E+01
  0.8000000E+00  0.5431065E+05 -0.1570796E+01  0.2771447E-01 -0.3123560E+01  0.1404509E+06  0.1412339E-08  0.1311667E+00 -0.5671182E-02  0.6001314E+05  0.1570796E+01  0.3390565E-08  0.1778293E+01
  0.9000000E+00  0.6570750E+05 -0.1570796E+01  0.7868540E-02 -0.3061028E+01  0.1285075E+06 -0.5165125E-08  0.1814123E+00  0.3139059E+01  0.7101457E+05  0.1570798E+01  0.9385703E-09  0.2089942E+01
  0.1000000E+01  0.7732326E+05 -0.1570796E+01  0.7302511E-02  0.4912363E-01  0.1163162E+06  0.3082816E-08  0.1080566E+00  0.3136403E+01  0.8145273E+05  0.1570796E+01  0.2096284E-08 -0.2777064E-01
  0.1100000E+01  0.8879102E+05 -0.1570796E+01  0.5405052E-01 -0.3129594E+01  0.1041198E+06  0.2791784E-07  0.1600989E+00  0.1539293E-01  0.9081876E+05  0.1570797E+01  0.5993128E-08 -0.1375306E+01
  0.1200000E+01  0.9981488E+05 -0.1570796E+01  0.8850308E-02  0.6896442E-02  0.9215068E+05 -0.1904230E-08  0.6866600E-01 -0.6499908E-02  0.9871910E+05  0.1570796E+01  0.5091756E-08  0.1754740E+01
  0.1300000E+01  0.1101397E+06 -0.1570796E+01  0.1501475E-01  0.3096354E+01  0.8061775E+05 -0.2375380E-07  0.3051890E+00  0.3135555E+01  0.1048474E+06  0.1570796E+01  0.1937537E-08 -0.2570255E+01
  0.1400000E+01  0.1195446E+06 -0.1570796E+01  0.5163156E-02  0.1184900E+00  0.6969802E+05  0.1740471E-07  0.1604168E+00  0.3137740E+01  0.1089834E+06  0.1570797E+01  0.9261423E-08  0.1316672E+01
  0.1500000E+01  0.1278452E+06 -0.1570796E+01  0.7445367E-02 -0.1688549E+00  0.5953163E+05 -0.8842832E-08  0.4574647E-01 -0.3079429E+01  0.1109962E+06  0.1570797E+01  0.1187208E-08  0.1373401E+01
  0.1600000E+01  0.1348935E+06 -0.1570796E+01  0.6123339E-02  0.1626907E+00  0.5022045E+05 -0.9874674E-08  0.3278673E-01 -0.2071157E-01  0.1108464E+06  0.1570796E+01  0.1666814E-08 -0.2110933E+00
  0.1700000E+01  0.1405794E+06 -0.1570796E+01  0.6318318E-02 -0.1932127E-01  0.4182880E+05  0.2918332E-08  0.7198256E-02  0.2904069E+01  0.1085840E+06  0.1570796E+01  0.1106925E-07 -0.1612877E+01
  0.1800000E+01  0.1448288E+06 -0.1570796E+01  0.6287306E-02  0.3019947E+01  0.3438539E+05  0.5813228E-07  0.4150122E-01 -0.1544279E-01  0.1043407E+06  0.1570796E+01  0.5169679E-08  0.1435269E+01
  0.1900000E+01  0.1476015E+06 -0.1570796E+01  0.1119031E-01 -0.2790489E+00  0.2788722E+05 -0.2188643E-08  0.1512559E-01  0.3113342E+01  0.9832282E+05  0.1570796E+01  0.2715248E-08  0.2111216E+01
  0.2000000E+01  0.1488872E+06 -0.1570796E+01  0.1166740E-01  0.1589135E+00  0.2230344E+05 -0.2086643E-07  0.5486102E-01 -0.3109323E+01  0.9079373E+05  0.1570796E+01  0.6756102E-08 -0.1536327E+01
  0.2100000E+01  0.1487024E+06 -0.1570796E+01  0.7657864E-02 -0.3067801E+01  0.1758183E+05  0.1822532E-07  0.2744572E-01 -0.3133601E+01  0.8206262E+05  0.1570796E+01  0.8402090E-08  0.1640129E+01
  0.2200000E+01  0.1470859E+06 -0.1570796E+01  0.9341981E-02 -0.3113822E+01  0.1365339E+05  0.1899890E-07  0.8009804E-01 -0.3135854E+01  0.7246589E+05  0.1570796E+01  0.8848330E-08 -0.1557639E+01
  0.2300000E+01  0.1440949E+06 -0.1570796E+01  0.4249115E-02  0.2913381E+01  0.1043837E+05  0.3252501E-07  0.5840286E-02  0.3250091E-01  0.6235269E+05  0.1570796E+01  0.1246297E-07  0.1430220E+01
  0.2400000E+01  0.1398018E+06 -0.1570796E+01  0.4189920E-02  0.3075994E+01  0.7851128E+04 -0.1068933E-06  0.7647172E-02 -0.2961792E+01  0.5206728E+05  0.1570796E+01  0.6342832E-08  0.1437335E+01
  0.2500000E+01  0.1342916E+06 -0.1570796E+01  0.1277420E-02  0.1942499E+01  0.5804753E+04 -0.9003200E-07  0.1216919E-01 -0.3691969E-01  0.4193736E+05  0.1570796E+01  0.2350711E-08 -0.1432620E+01
  0.2600000E+01  0.1276600E+06 -0.1570796E+01  0.8611920E-02  0.3104376E+01  0.4214776E+04 -0.2941500E-07  0.4586786E-02  0.3638569E-02  0.3226090E+05  0.1570796E+01  0.1513536E-07  0.1557336E+01
  0.2700000E+01  0.1200118E+06 -0.1570796E+01  0.5067435E-02 -0.3407959E+00  0.3002001E+04 -0.5718232E-07  0.4003875E-03 -0.2231448E+01  0.2329697E+05  0.1570796E+01  0.1666814E-08  0.1359703E+01
  0.2800000E+01  0.1114606E+06 -0.1570796E+01  0.7378540E-02 -0.3075368E+01  0.2094594E+04  0.8650754E-08  0.2636190E-03 -0.2160203E+00  0.1525905E+05  0.1570796E+01  0.3770491E-08 -0.1415800E+01
  0.2900000E+01  0.1021293E+06 -0.1570796E+01  0.3814583E-02 -0.2677051E+01  0.1429240E+04 -0.3136120E-07  0.1283770E-02 -0.2926550E+01  0.8310491E+04  0.1570796E+01  0.9599853E-09 -0.2449787E+00
  0.3000000E+01  0.9214971E+05 -0.1570796E+01  0.2023905E-02  0.3043424E+01  0.9516856E+03 -0.6964523E-07  0.2416439E-03 -0.1563396E+01  0.2562589E+04  0.1570796E+01  0.2095476E-08 -0.1570796E+01
  0.3100000E+01  0.8166406E+05 -0.1570796E+01  0.5247648E-02 -0.7275764E-01  0.6166578E+03  0.4523574E-07  0.1928630E-03  0.8514430E+00  0.1925285E+04 -0.1570796E+01  0.2968020E-08  0.1373401E+01
  0.3200000E+01  0.7082411E+05 -0.1570796E+01  0.8975489E-03 -0.9544994E+00  0.3873422E+03  0.2154336E-07  0.8379518E-03  0.2937599E+01  0.5143914E+04 -0.1570796E+01  0.1187208E-08 -0.1768192E+01
  0.3300000E+01  0.5979221E+05 -0.1570796E+01  0.4505866E-03  0.2647651E+01  0.2345727E+03 -0.1524593E-07  0.5944687E-03  0.3036975E+01  0.7130818E+04 -0.1570796E+01  0.2603126E-09 -0.4636476E+00
  0.3400000E+01  0.4873969E+05 -0.1570796E+01  0.1191750E-03 -0.8760580E+00  0.1358290E+03 -0.2132671E-06  0.2757738E-03 -0.1075185E+00  0.7965859E+04 -0.1570796E+01  0.9946529E-09  0.3587707E+00
  0.3500000E+01  0.3784589E+05 -0.1570796E+01  0.6254970E-03  0.3844701E+00  0.7418330E+02  0.6220928E-06  0.2441614E-03 -0.1815839E+00  0.7765805E+04 -0.1570796E+01  0.8475163E-09 -0.1849096E+01
  0.3600000E+01  0.2729540E+05 -0.1570796E+01  0.2088145E-02 -0.3177067E+00  0.3725518E+02 -0.4709712E-07  0.6577377E-03 -0.9584702E-02  0.6678266E+04 -0.1570797E+01  0.1173213E-08 -0.3017238E+01
  0.3700000E+01  0.1727423E+05 -0.1570796E+01  0.1364788E-03 -0.2034444E+01  0.1624795E+02 -0.3668441E-06  0.6222778E-03 -0.2746667E+00  0.4875063E+04 -0.1570796E+01  0.1416254E-08 -0.1735945E+01
  0.3800000E+01  0.7965729E+04 -0.1570796E+01  0.7027745E-03 -0.2580692E+01  0.5102659E+01 -0.7096265E-06  0.2058323E-03  0.2160917E+01  0.2545167E+04 -0.1570797E+01  0.8394828E-09 -0.9827937E+00
  0.3900000E+01  0.4555211E+03  0.1570805E+01  0.4825253E-04 -0.1249046E+01  0.2153151E+00 -0.3141574E+01  0.3764177E-03  0.5810718E+00  0.1128251E+03  0.1570788E+01  0.4205478E-08  0.1487655E+01
  0.4000000E+01  0.7829729E+04  0.1570797E+01  0.1405880E-02 -0.3087298E+01  0.2292071E+01 -0.3141592E+01  0.2548244E-02  0.4240649E-01  0.2898383E+04  0.1570797E+01  0.1937537E-08 -0.9994588E+00
  0.4100000E+01  0.1401889E+05  0.1570797E+01  0.2037105E-02  0.7490497E-02  0.2713254E+01 -0.3141593E+01  0.1789398E-02  0.3098480E+01  0.5616954E+04  0.1570796E+01  0.8394828E-09 -0.2158799E+01
  0.4200000E+01  0.1891384E+05  0.1570796E+01  0.1023591E-03  0.2677945E+01  0.2399515E+01  0.3141592E+01  0.1121558E-02  0.3127854E+01  0.8087896E+04  0.1570796E+01  0.2328306E-09  0.1570796E+01
  0.4300000E+01  0.2244099E+05  0.1570796E+01  0.2240059E-03 -0.2865632E+01  0.1848219E+01  0.3141593E+01  0.1556306E-02 -0.9840554E-02  0.1015206E+05  0.1570796E+01  0.3745952E-08 -0.1465716E+01
  0.4400000E+01  0.2456855E+05  0.1570796E+01  0.1913442E-03 -0.7982998E-01  0.1300648E+01 -0.3141593E+01  0.6706495E-03  0.2841233E+01  0.1167907E+05  0.1570796E+01  0.1889957E-08  0.1741008E+01
  0.4500000E+01  0.2531130E+05  0.1570796E+01  0.1845304E-03 -0.1695151E+01  0.8527669E+00 -0.3141593E+01  0.1373317E-02 -0.3030375E+01  0.1257350E+05  0.1570796E+01  0.3523367E-08  0.1438245E+01
  0.4600000E+01  0.2473374E+05  0.1570796E+01  0.1081034E-02 -0.3042626E+01  0.5250481E+00 -0.3141593E+01  0.3540885E-03 -0.3098673E+01  0.1277996E+05  0.1570796E+01  0.2796392E-08 -0.1612439E+01
  0.4700000E+01  0.2295098E+05  0.1570796E+01  0.1394824E-02  0.1759396E+00  0.3039200E+00 -0.3141592E+01  0.1162581E-03 -0.1392509E+01  0.1228634E+05  0.1570796E+01  0.4911568E-08  0.1475845E+01
  0.4800000E+01  0.2012711E+05  0.1570796E+01  0.7660231E-03  0.3051835E+01  0.1646078E+00 -0.3141592E+01  0.1164758E-03  0.1757225E+01  0.1112517E+05  0.1570796E+01  0.5820766E-09  0.1570796E+01
  0.4900000E+01  0.1647030E+05  0.1570796E+01  0.6063809E-03 -0.3734972E+00  0.8236827E-01 -0.3141592E+01  0.2199885E-03 -0.2467509E+01  0.9372299E+04  0.1570796E+01  0.3311192E-08  0.1747505E+01
  0.5000000E+01  0.1222521E+05  0.1570796E+01  0.3159125E-03 -0.1225894E+01  0.3701905E-01 -0.3141593E+01  0.1118741E-03  0.2439458E+01  0.7143294E+04  0.1570796E+01  0.2437446E-08 -0.1570796E+01
