VARIABLES="w (rad/s)"
"A   1   1" "B   1   1"
"A   1   2" "B   1   2"
"A   1   3" "B   1   3"
"A   1   4" "B   1   4"
"A   1   5" "B   1   5"
"A   1   6" "B   1   6"
Zone t="Motion of body    1 in DoF   1",I=    50,F=POINT
  0.1000000E+00  0.7701537E+05  0.1665089E+00 -0.1144409E-03 -0.1164153E-09  0.2193451E-02  0.4152310E-04  0.3290176E-03  0.1753506E-08 -0.9308418E+05 -0.1995876E+00  0.5165930E-08 -0.9880985E-14
  0.2000000E+00  0.7741199E+05  0.1538527E+01  0.3194809E-03 -0.9313226E-09 -0.3910065E-02 -0.9003037E-04 -0.2288818E-03  0.2328306E-07 -0.9346087E+05 -0.1838620E+01  0.7275958E-09 -0.2486900E-13
  0.3000000E+00  0.7791523E+05  0.6639790E+01  0.6993611E-04  0.2654269E-07 -0.3490448E-02 -0.2002600E-03 -0.4625320E-03  0.7450581E-07 -0.9383843E+05 -0.7890859E+01 -0.2328306E-08  0.8881784E-13
  0.4000000E+00  0.7863680E+05  0.2245902E+02 -0.1335144E-03 -0.3222376E-06 -0.1279831E-01 -0.7626824E-03 -0.1590252E-02 -0.3641471E-06 -0.9442866E+05 -0.2648238E+02  0.5748007E-08 -0.9663381E-12
  0.5000000E+00  0.7969897E+05  0.6960703E+02  0.1678467E-03 -0.1426786E-05 -0.1588440E-01 -0.2176657E-02 -0.1066208E-02 -0.2738088E-06 -0.9517655E+05 -0.8119138E+02  0.8731149E-09 -0.3581135E-11
  0.6000000E+00  0.8109656E+05  0.2051263E+03  0.6993611E-04  0.1579523E-05 -0.1371066E-01 -0.3264338E-02  0.9218851E-03 -0.1147389E-05 -0.9634359E+05 -0.2362247E+03 -0.3055902E-08 -0.6139089E-11
  0.7000000E+00  0.8292070E+05  0.5594932E+03 -0.7247925E-03  0.1937151E-05 -0.1395089E-01 -0.3189385E-02 -0.9809222E-04  0.7897615E-06 -0.9789016E+05 -0.6344869E+03 -0.1164153E-08 -0.7639755E-10
  0.8000000E+00  0.8532353E+05  0.1363985E+04  0.5722046E-04  0.2753735E-04 -0.3746986E-01 -0.1453722E-01 -0.1013279E-03  0.2774596E-04 -0.9968630E+05 -0.1517056E+04  0.3710738E-08  0.4001777E-10
  0.9000000E+00  0.8804878E+05  0.2963158E+04 -0.6866455E-03  0.3099442E-04 -0.6109874E-01 -0.4525208E-01  0.5849203E-03 -0.2682209E-05 -0.1019435E+06 -0.3227938E+04  0.5109339E-08 -0.4729372E-10
  0.1000000E+01  0.9122621E+05  0.5837390E+04 -0.4196167E-03  0.4768372E-06 -0.4045486E-01 -0.3931046E-01 -0.3929138E-03 -0.3719330E-04 -0.1040879E+06 -0.6194522E+04  0.3958121E-08  0.8003553E-10
  0.1100000E+01  0.9436566E+05  0.1060126E+05  0.8253618E-03 -0.8296967E-04 -0.2304424E-01 -0.2221966E-01 -0.4074790E-03  0.3385544E-04 -0.1061501E+06 -0.1093382E+05 -0.1164153E-08  0.1135049E-08
  0.1200000E+01  0.9711953E+05  0.1791163E+05 -0.1589457E-03  0.1945496E-03 -0.1347224E-01  0.1068115E-03 -0.2479553E-03 -0.4515648E-03 -0.1074037E+06 -0.1786924E+05 -0.3492459E-08  0.3637979E-09
  0.1300000E+01  0.9885535E+05  0.2830452E+05 -0.1173753E-04  0.7629395E-05  0.8803148E-04  0.7717133E-02 -0.5839422E-03  0.3061295E-03 -0.1072014E+06 -0.2716677E+05 -0.7611772E-08 -0.1076842E-08
  0.1400000E+01  0.9864910E+05  0.4187280E+05  0.1013620E-02 -0.3433228E-04  0.8991786E-02  0.1115227E-01  0.1877376E-02  0.3347397E-03 -0.1052199E+06 -0.3854425E+05  0.1663076E-09  0.2153683E-08
  0.1500000E+01  0.9595741E+05  0.5780245E+05  0.5086263E-04 -0.5950928E-03  0.5783081E-02  0.3143311E-02  0.1491547E-02  0.4243851E-03 -0.1008459E+06 -0.5070817E+05 -0.8537124E-09  0.1280569E-08
  0.1600000E+01  0.9048820E+05  0.7451312E+05  0.4768372E-04  0.8087158E-03  0.3643036E-02  0.6134033E-02 -0.3135204E-03 -0.2460480E-03 -0.9419988E+05 -0.6186897E+05  0.6912160E-08  0.3608875E-08
  0.1700000E+01  0.8267549E+05  0.8982809E+05  0.4308364E-03 -0.8697510E-03 -0.1350852E-02  0.2159119E-02 -0.1096164E-02  0.4549026E-03 -0.8623500E+05 -0.7016462E+05  0.4040297E-08  0.2211891E-08
  0.1800000E+01  0.7345503E+05  0.1017105E+06  0.5340576E-03 -0.1739502E-02 -0.2176497E-02  0.1461029E-02 -0.2871619E-03  0.5311966E-03 -0.7785090E+05 -0.7402033E+05 -0.2069606E-08  0.5820766E-08
  0.1900000E+01  0.6402456E+05  0.1090952E+06 -0.1646343E-03  0.4730225E-03 -0.1460828E-01  0.4238129E-02  0.4788449E-03  0.6198883E-04 -0.7036483E+05 -0.7340000E+05  0.6127122E-10 -0.3376044E-08
  0.2000000E+01  0.5535375E+05  0.1117663E+06 -0.1907349E-03  0.5035400E-03 -0.2074051E-01  0.5115509E-02 -0.1296997E-03  0.1707077E-03 -0.6440452E+05 -0.6879096E+05  0.5878974E-08 -0.5122274E-08
  0.2100000E+01  0.4807646E+05  0.1107510E+06  0.9809222E-04 -0.3356934E-03 -0.2081372E-01  0.3187180E-02  0.3169832E-03 -0.4529953E-03 -0.6020637E+05 -0.6149213E+05  0.8592560E-09 -0.2328306E-08
  0.2200000E+01  0.4229743E+05  0.1068778E+06 -0.2913041E-03 -0.1525879E-02 -0.1528306E-01 -0.1695633E-02  0.4673004E-03 -0.3199577E-03 -0.5767595E+05 -0.5278150E+05 -0.1481649E-08  0.0000000E+00
  0.2300000E+01  0.3801012E+05  0.1011763E+06  0.1293680E-03  0.3509521E-03 -0.1078564E-01 -0.1907349E-03  0.5473261E-04 -0.7057190E-04 -0.5655332E+05 -0.4362500E+05 -0.8604611E-09  0.1164153E-08
  0.2400000E+01  0.3502156E+05  0.9451482E+05 -0.5563100E-04  0.1068115E-03 -0.6570816E-02 -0.1144409E-03 -0.5173683E-03 -0.5979538E-03 -0.5649603E+05 -0.3468071E+05  0.3637979E-09  0.0000000E+00
  0.2500000E+01  0.3303760E+05  0.8745241E+05  0.5218506E-03 -0.3662109E-03 -0.9423828E-02  0.7886887E-03  0.2853394E-03 -0.5006790E-05 -0.5716255E+05 -0.2654802E+05  0.2211891E-08 -0.5355105E-08
  0.2600000E+01  0.3185779E+05  0.8035939E+05  0.9536743E-04 -0.1220703E-03 -0.1202510E-01  0.1221657E-02 -0.7702754E-04 -0.1642704E-03 -0.5829661E+05 -0.1930344E+05 -0.1499967E-08 -0.2095476E-08
  0.2700000E+01  0.3128552E+05  0.7360385E+05 -0.4831950E-03  0.1342773E-02 -0.9615863E-02  0.1925945E-02 -0.9098759E-03 -0.3492832E-04 -0.5971367E+05 -0.1318316E+05 -0.2197609E-08 -0.2561137E-08
  0.2800000E+01  0.3115548E+05  0.6726064E+05  0.1439026E-04  0.1831055E-02 -0.3465925E-02  0.8387566E-03  0.2772468E-03 -0.1838207E-03 -0.6126264E+05 -0.7971633E+04 -0.1831982E-09 -0.6402843E-08
  0.2900000E+01  0.3132001E+05  0.6140375E+05 -0.1016156E-03 -0.5035400E-03  0.1515356E-02  0.7200241E-03  0.4610522E-03  0.3200769E-04 -0.6281930E+05 -0.3749385E+04  0.1515406E-08 -0.2561137E-08
  0.3000000E+01  0.3170028E+05  0.5607996E+05  0.4723867E-03 -0.6561279E-03  0.1800537E-02  0.1632929E-02 -0.2059937E-03  0.5733967E-04 -0.6431216E+05 -0.4216804E+03  0.7033426E-09  0.1513399E-08
  0.3100000E+01  0.3220221E+05  0.5130375E+05  0.2325735E-03 -0.1525879E-04  0.6251181E-03 -0.5656600E-02  0.3691643E-04  0.4649162E-05 -0.6567702E+05  0.2097721E+04 -0.5961591E-09  0.1979060E-08
  0.3200000E+01  0.3280134E+05  0.4700031E+05  0.2843142E-03  0.8392334E-03  0.6799698E-02  0.2106905E-02  0.7891655E-03 -0.2872944E-04 -0.6695739E+05  0.4092160E+04 -0.1455192E-09 -0.2444722E-08
  0.3300000E+01  0.3342171E+05  0.4310364E+05 -0.3444787E-03  0.8087158E-03  0.9478945E-04  0.9474754E-03  0.3710660E-03 -0.4115701E-04 -0.6807955E+05  0.5570827E+04  0.2557609E-08 -0.5820766E-09
  0.3400000E+01  0.3406489E+05  0.3968554E+05 -0.7405000E-04 -0.2288818E-03  0.2347161E-02 -0.1680851E-03  0.5643508E-03  0.2586842E-04 -0.6906399E+05  0.6657480E+04 -0.9929542E-09 -0.1629815E-08
  0.3500000E+01  0.3469195E+05  0.3647850E+05  0.3596715E-04 -0.7476807E-03  0.2485003E-02 -0.3077388E-03  0.6114415E-03 -0.5388260E-04 -0.6992580E+05  0.7501758E+04 -0.4989228E-09  0.1164153E-08
  0.3600000E+01  0.3533102E+05  0.3354829E+05  0.8053250E-04  0.4882812E-03  0.1061757E-02 -0.6211400E-03 -0.1409319E-03 -0.4921854E-04 -0.7069359E+05  0.8178469E+04  0.4446419E-09  0.3259629E-08
  0.3700000E+01  0.3595004E+05  0.3084595E+05 -0.1608359E-03 -0.3662109E-03  0.6557155E-03 -0.3007054E-03 -0.5670496E-03 -0.4090369E-04 -0.7136609E+05  0.8849900E+04 -0.8809808E-09  0.3492460E-09
  0.3800000E+01  0.3659096E+05  0.2840119E+05  0.5119725E-04 -0.3890991E-03  0.3858868E-02 -0.2886057E-03  0.5149841E-03 -0.1174212E-04 -0.7198017E+05  0.9220279E+04 -0.4518753E-09 -0.3492460E-08
  0.3900000E+01  0.3542204E+05  0.2492500E+05 -0.3462571E-03 -0.6484985E-04  0.3235646E-02  0.8573532E-03  0.4714574E-03  0.9131432E-04 -0.7309509E+05  0.5868163E+04  0.8955024E-09  0.2357410E-08
  0.4000000E+01  0.3751762E+05  0.2420055E+05  0.2098083E-04  0.2212524E-03 -0.1239777E-02  0.4239082E-03 -0.1840591E-03  0.5947053E-04 -0.7313605E+05  0.9701910E+04  0.3710738E-09  0.1396984E-08
  0.4100000E+01  0.3810397E+05  0.2236526E+05 -0.2940108E-03  0.7629395E-04  0.3427645E-02 -0.4565716E-04 -0.1095097E-02  0.1009703E-03 -0.7360018E+05  0.9892720E+04 -0.4826977E-08 -0.9313226E-09
  0.4200000E+01  0.3865287E+05  0.2074134E+05 -0.1462301E-03  0.3814697E-04  0.4828317E-02  0.1258850E-03 -0.3787450E-03  0.4670769E-04 -0.7404618E+05  0.9908541E+04 -0.2099634E-08 -0.1396984E-08
  0.4300000E+01  0.3915688E+05  0.1929049E+05 -0.8693961E-04 -0.1983643E-03  0.9510128E-03 -0.4395247E-03  0.3025144E-03 -0.2998859E-04 -0.7444157E+05  0.9668484E+04 -0.3925633E-09  0.2328306E-09
  0.4400000E+01  0.3965396E+05  0.1779073E+05  0.2947721E-03 -0.1068115E-03  0.7421320E-03 -0.5637705E-03  0.1065514E-02 -0.6027520E-04 -0.7482773E+05  0.9518933E+04 -0.2645803E-08 -0.1862645E-08
  0.4500000E+01  0.4009636E+05  0.1667766E+05 -0.1415677E-03 -0.2059937E-03  0.2417670E-02  0.4915446E-03 -0.4026625E-03 -0.3139675E-04 -0.7515208E+05  0.9109023E+04  0.4462587E-09  0.9895302E-09
  0.4600000E+01  0.4051127E+05  0.1566974E+05 -0.2156133E-04  0.1525879E-04 -0.4610808E-03 -0.2704971E-03  0.5249355E-03 -0.2871174E-04 -0.7543970E+05  0.8701101E+04 -0.4112498E-09  0.1746230E-09
  0.4700000E+01  0.4089677E+05  0.1474063E+05  0.1404133E-03 -0.1831055E-03  0.1801836E-02  0.6102026E-04  0.5218831E-03  0.2020309E-03 -0.7568976E+05  0.8278010E+04 -0.2792729E-08 -0.1746230E-09
  0.4800000E+01  0.4124703E+05  0.1392616E+05 -0.4537900E-03 -0.1525879E-04  0.2835592E-02 -0.2071336E-03  0.3051758E-03  0.7728115E-04 -0.7590812E+05  0.7896860E+04  0.1661344E-08  0.5238689E-09
  0.4900000E+01  0.4154958E+05  0.1308283E+05  0.1915134E-03  0.6866455E-04  0.5057198E-02  0.5607307E-04  0.6477200E-03 -0.4933029E-04 -0.7610991E+05  0.7603345E+04  0.1924416E-08  0.5820766E-09
  0.5000000E+01  0.4181443E+05  0.1211954E+05  0.7629395E-06 -0.2288818E-04  0.2911377E-02  0.3632009E-03  0.9063721E-03  0.2304092E-04 -0.7630636E+05  0.7377503E+04  0.3492460E-09  0.0000000E+00
Zone t="Motion of body    1 in DoF   2",I=    50,F=POINT
  0.1000000E+00 -0.4577637E-03  0.4947651E-09  0.7701530E+05  0.1664906E+00  0.2735853E-03 -0.5438778E-09  0.9308411E+05  0.1996026E+00  0.3337860E-04 -0.4583853E-09 -0.8658390E-08  0.1563361E-11
  0.2000000E+00  0.6914139E-03  0.9778887E-08  0.7741198E+05  0.1538505E+01 -0.5674362E-03 -0.6679329E-08  0.9346085E+05  0.1838637E+01  0.4673004E-03 -0.2159504E-07  0.1755325E-08  0.1396439E-10
  0.3000000E+00  0.1093547E-02  0.2561137E-07  0.7791516E+05  0.6639638E+01  0.4529953E-04 -0.2722954E-06  0.9383845E+05  0.7890856E+01  0.3210703E-03  0.3958121E-07  0.5650993E-08  0.3382672E-10
  0.4000000E+00 -0.4673004E-03 -0.1862645E-08  0.7863676E+05  0.2245927E+02  0.5191565E-03  0.2312008E-06  0.9442864E+05  0.2648302E+02 -0.7855892E-03 -0.1238659E-06 -0.2610250E-08 -0.2963496E-10
  0.5000000E+00 -0.9536743E-03 -0.1117587E-07  0.7969898E+05  0.6960728E+02 -0.9989738E-03 -0.3557652E-06  0.9517646E+05  0.8119082E+02 -0.7286072E-03  0.1411885E-05 -0.2342858E-08  0.9601564E-10
  0.6000000E+00 -0.1379649E-02  0.1490116E-06  0.8109652E+05  0.2051263E+03 -0.1259645E-03 -0.1324341E-05  0.9634355E+05  0.2362262E+03  0.9902318E-03  0.2279878E-05  0.3213548E-08 -0.1308962E-09
  0.7000000E+00  0.3705706E-03 -0.1877546E-05  0.8292067E+05  0.5594908E+03 -0.5762918E-03 -0.8828938E-05  0.9789010E+05  0.6344839E+03  0.7452284E-03  0.9700656E-05  0.3721133E-08  0.8560619E-10
  0.8000000E+00  0.5817413E-03  0.1382828E-04  0.8532336E+05  0.1363983E+04  0.1267791E-02  0.1534820E-05  0.9968609E+05  0.1517057E+04  0.4422665E-03 -0.4583597E-04 -0.1273293E-09 -0.2382876E-09
  0.9000000E+00 -0.1695421E-03 -0.2884865E-04  0.8804868E+05  0.2963160E+04  0.7587009E-03  0.3430247E-04  0.1019433E+06  0.3227935E+04 -0.5679660E-03  0.2461672E-04  0.8084398E-09  0.1680291E-09
  0.1000000E+01 -0.6332397E-03 -0.4434586E-04  0.9122597E+05  0.5837383E+04  0.2746582E-03 -0.9554625E-04  0.1040876E+06  0.6194512E+04  0.1106262E-02 -0.1299381E-04  0.1891749E-08  0.9185896E-10
  0.1100000E+01 -0.2011386E-03  0.2861023E-04  0.9436543E+05  0.1060124E+05 -0.4300204E-03  0.1399517E-03  0.1061497E+06  0.1093380E+05  0.2373782E-02 -0.1096725E-03 -0.7937408E-08  0.6857590E-09
  0.1200000E+01 -0.1258850E-02  0.1258850E-03  0.9711934E+05  0.1791162E+05  0.4776319E-03 -0.3647804E-04  0.1074034E+06  0.1786921E+05  0.9727477E-03  0.3337860E-03  0.2182787E-09  0.1871740E-08
  0.1300000E+01 -0.7864145E-03 -0.7247925E-04  0.9885512E+05  0.2830447E+05  0.3022414E-03  0.6079674E-04  0.1072010E+06  0.2716673E+05 -0.1081320E-02 -0.1091957E-03  0.3111871E-08  0.1527951E-09
  0.1400000E+01  0.3051758E-03 -0.2174377E-03  0.9864890E+05  0.4187275E+05 -0.2724784E-05 -0.2050400E-03  0.1052196E+06  0.3854416E+05  0.5081722E-03  0.4577637E-04 -0.2182787E-08  0.2204615E-08
  0.1500000E+01 -0.3051758E-04 -0.1068115E-03  0.9595728E+05  0.5780236E+05  0.5149841E-03  0.4367828E-03  0.1008456E+06  0.5070810E+05 -0.5467733E-04  0.9536743E-06  0.1278628E-07  0.3361492E-08
  0.1600000E+01  0.1811981E-03  0.3509521E-03  0.9048792E+05  0.7451303E+05 -0.6628036E-03  0.8773804E-04  0.9419959E+05  0.6186891E+05 -0.3516674E-03 -0.6046295E-03 -0.1419721E-07 -0.7188646E-08
  0.1700000E+01  0.2513212E-03 -0.7858276E-03  0.8267530E+05  0.8982793E+05  0.2148572E-03  0.4386902E-04  0.8623477E+05  0.7016453E+05 -0.2041985E-03 -0.1364708E-02  0.3971817E-08  0.4365575E-08
  0.1800000E+01  0.1288520E-02  0.1281738E-02  0.7345477E+05  0.1017103E+06  0.2336502E-03 -0.6914139E-04  0.7785060E+05  0.7402014E+05  0.4980299E-04  0.9126663E-03  0.3346941E-08  0.3856258E-08
  0.1900000E+01 -0.4657946E-03  0.6256104E-03  0.6402427E+05  0.1090949E+06 -0.2233606E-04  0.3895760E-03  0.7036455E+05  0.7339980E+05 -0.1024949E-02 -0.1049042E-02 -0.6234347E-08 -0.4947651E-09
  0.2000000E+01 -0.4959106E-03 -0.9155273E-03  0.5535352E+05  0.1117661E+06 -0.4172325E-04 -0.9918213E-04  0.6440421E+05  0.6879080E+05  0.8878708E-03 -0.2555847E-03  0.4969479E-08  0.5966285E-08
  0.2100000E+01  0.3960019E-03 -0.1098633E-02  0.4807627E+05  0.1107508E+06  0.5113511E-03 -0.2069473E-03  0.6020617E+05  0.6149202E+05 -0.5031768E-03 -0.9317398E-03 -0.1129506E-08 -0.4045432E-08
  0.2200000E+01  0.3051758E-03  0.1037598E-02  0.4229728E+05  0.1068776E+06 -0.1118400E-03  0.2944469E-03  0.5767572E+05  0.5278142E+05 -0.4803051E-03  0.3633499E-03 -0.7937408E-10 -0.7887138E-08
  0.2300000E+01  0.1774664E-03  0.7476807E-03  0.3801000E+05  0.1011761E+06  0.4623247E-04  0.4506111E-04  0.5655313E+05  0.4362490E+05  0.1890763E-03  0.1139641E-03 -0.2995796E-08  0.7043127E-08
  0.2400000E+01 -0.9218851E-04  0.1312256E-02  0.3502148E+05  0.9451470E+05 -0.2054373E-03  0.4696846E-04  0.5649591E+05  0.3468064E+05  0.4641215E-03 -0.2636909E-03 -0.4885502E-08  0.5529728E-09
  0.2500000E+01  0.8773804E-04 -0.6561279E-03  0.3303752E+05  0.8745230E+05 -0.6332398E-04 -0.1540184E-03  0.5716240E+05  0.2654799E+05  0.1022339E-03  0.3645420E-03 -0.1296576E-08  0.8905772E-08
  0.2600000E+01  0.9390024E-04 -0.4272461E-03  0.3185771E+05  0.8035936E+05 -0.2167775E-03  0.1426935E-03  0.5829644E+05  0.1930342E+05  0.3279173E-03  0.5006790E-05 -0.1234814E-08 -0.2182787E-08
  0.2700000E+01  0.2995244E-03  0.7934570E-03  0.3128546E+05  0.7360377E+05  0.6866455E-03 -0.2980232E-04  0.5971350E+05  0.1318316E+05  0.2719738E-03 -0.5698204E-04  0.1399780E-08 -0.7741619E-08
  0.2800000E+01 -0.1925230E-03  0.2136230E-03  0.3115541E+05  0.6726059E+05  0.1553127E-03 -0.2354383E-04  0.6126252E+05  0.7971618E+04  0.1149178E-02 -0.1943111E-04 -0.3976278E-08 -0.3798050E-08
  0.2900000E+01 -0.1453531E-03  0.3356934E-03  0.3131997E+05  0.6140374E+05 -0.2884043E-03 -0.1350045E-04  0.6281917E+05  0.3749387E+04  0.9201313E-03 -0.4649162E-04  0.8404985E-10 -0.7537892E-08
  0.3000000E+01  0.2415975E-03 -0.1068115E-03  0.3170021E+05  0.5607993E+05 -0.4978180E-03  0.3644824E-04  0.6431198E+05  0.4216857E+03  0.5575816E-03  0.3373623E-04  0.1829297E-08 -0.1615263E-08
  0.3100000E+01  0.1956571E-03 -0.2288818E-03  0.3220221E+05  0.5130381E+05 -0.4017738E-03 -0.5066395E-05  0.6567697E+05 -0.2097730E+04 -0.5475936E-03 -0.2589822E-04  0.4918900E-08 -0.1091394E-08
  0.3200000E+01  0.3099442E-04 -0.4272461E-03  0.3280133E+05  0.4700049E+05 -0.1201034E-03 -0.1032650E-04  0.6695732E+05 -0.4092172E+04  0.4029274E-03 -0.1287460E-04 -0.2879688E-08  0.1731678E-08
  0.3300000E+01 -0.3785798E-03  0.0000000E+00  0.3342163E+05  0.4310385E+05  0.6432967E-03  0.9387732E-05  0.6807947E+05 -0.5570851E+04  0.4670114E-03  0.2509356E-04 -0.3980831E-08 -0.8294592E-09
  0.3400000E+01 -0.2597360E-03 -0.6256104E-03  0.3406484E+05  0.3968570E+05 -0.2356137E-03  0.1501292E-04  0.6906392E+05 -0.6657498E+04  0.3702500E-04  0.4614890E-04  0.6676761E-09  0.1891749E-09
  0.3500000E+01 -0.2005441E-03  0.2288818E-03  0.3469188E+05  0.3647859E+05 -0.4117148E-03  0.2376735E-05  0.6992568E+05 -0.7501782E+04  0.5264282E-03 -0.1434982E-04 -0.1146483E-08  0.1600711E-09
  0.3600000E+01 -0.4333920E-03  0.3051758E-04  0.3533094E+05  0.3354836E+05 -0.2914005E-04 -0.2749264E-05  0.7069352E+05 -0.8178484E+04  0.1790789E-03  0.8805096E-04 -0.2809328E-08 -0.2779416E-08
  0.3700000E+01  0.5814836E-03 -0.9918213E-04  0.3594999E+05  0.3084602E+05  0.7180910E-03 -0.7659197E-05  0.7136601E+05 -0.8849929E+04  0.7113895E-03 -0.5345047E-04 -0.4876858E-08 -0.1920853E-08
  0.3800000E+01  0.1184564E-03  0.2593994E-03  0.3659095E+05  0.2840122E+05 -0.3453305E-03 -0.2692640E-04  0.7198014E+05 -0.9220291E+04 -0.9868019E-03 -0.2831221E-04 -0.5706840E-08  0.1044828E-07
  0.3900000E+01  0.3169133E-03 -0.5340576E-04  0.3542199E+05  0.2492485E+05  0.3922291E-03 -0.3962517E-03  0.7309506E+05 -0.5868323E+04  0.2944164E-03  0.7629395E-05  0.1628135E-07 -0.1245389E-06
  0.4000000E+01  0.5254745E-03  0.7629395E-04  0.3751758E+05  0.2420056E+05  0.1578331E-03 -0.4395843E-06  0.7313598E+05 -0.9701915E+04 -0.2365112E-03 -0.1430064E-03  0.1001354E-08 -0.9866199E-08
  0.4100000E+01 -0.2074823E-03  0.9155273E-04  0.3810394E+05  0.2236529E+05 -0.1218842E-03  0.2048910E-05  0.7360005E+05 -0.9892728E+04  0.8317901E-03 -0.1591444E-04  0.3204083E-08 -0.5253241E-08
  0.4200000E+01 -0.5531311E-03  0.3814697E-03  0.3865282E+05  0.2074138E+05 -0.3891900E-03 -0.5923212E-06  0.7404612E+05 -0.9908567E+04  0.1379649E-02  0.1090765E-04 -0.1680400E-08 -0.4161848E-08
  0.4300000E+01 -0.8693961E-04 -0.3433228E-03  0.3915682E+05  0.1929054E+05 -0.3956639E-03  0.9294599E-06  0.7444152E+05 -0.9668508E+04 -0.5597846E-03 -0.1561493E-03  0.7318259E-09 -0.4365575E-09
  0.4400000E+01 -0.2037395E-03 -0.5340576E-04  0.3965390E+05  0.1779077E+05 -0.4378232E-04  0.2514571E-05  0.7482760E+05 -0.9518951E+04 -0.6649711E-03  0.1016185E-03 -0.2450675E-08 -0.6126356E-08
  0.4500000E+01 -0.5069309E-03  0.4577637E-04  0.4009632E+05  0.1667771E+05 -0.3128052E-03  0.2451241E-05  0.7515202E+05 -0.9109058E+04  0.2797445E-03 -0.1066178E-04 -0.2126196E-09 -0.6140908E-08
  0.4600000E+01  0.5357162E-03 -0.1296997E-03  0.4051124E+05  0.1566976E+05  0.1001358E-02  0.2337620E-06  0.7543957E+05 -0.8701116E+04 -0.5440090E-03  0.5668635E-04 -0.7133602E-08  0.2284651E-08
  0.4700000E+01 -0.4869827E-05 -0.3128052E-03  0.4089674E+05  0.1474067E+05  0.4232691E-03 -0.6160699E-06  0.7568966E+05 -0.8278023E+04 -0.3246551E-04 -0.4991889E-06 -0.3770340E-08  0.1127773E-08
  0.4800000E+01 -0.4633268E-03  0.7629395E-04  0.4124702E+05  0.1392620E+05  0.4549821E-03 -0.1857989E-05  0.7590807E+05 -0.7896873E+04 -0.6302198E-03 -0.4419126E-04  0.5320544E-09 -0.1593435E-08
  0.4900000E+01  0.3020617E-03  0.6866455E-04  0.4154954E+05  0.1308285E+05  0.1012062E-03 -0.2460554E-05  0.7610984E+05 -0.7603359E+04 -0.1058773E-03 -0.3582984E-04 -0.1700198E-08  0.1637090E-08
  0.5000000E+01  0.4463196E-03  0.3814697E-04  0.4181437E+05  0.1211955E+05 -0.2674103E-03  0.5355105E-06  0.7630626E+05 -0.7377519E+04 -0.8010864E-04  0.6850809E-04 -0.2426532E-08  0.8614734E-08
Zone t="Motion of body    1 in DoF   3",I=    50,F=POINT
  0.1000000E+00  0.3814697E-03  0.4720688E-04 -0.2108812E-02  0.9953976E-05  0.3614836E+05  0.1980058E+03 -0.5698204E-02  0.2077371E-03 -0.1430511E-02 -0.1668930E-05  0.2364686E-09 -0.3865352E-11
  0.2000000E+00  0.1468658E-02 -0.1754761E-03  0.1151562E-02 -0.3081560E-04  0.3543706E+05  0.4220234E+03  0.5578995E-02  0.2842247E-03 -0.4539490E-02 -0.4649162E-04  0.7275958E-10 -0.2637535E-10
  0.3000000E+00  0.1462301E-02 -0.1907349E-04 -0.1160304E-02  0.1490116E-04  0.3510674E+05  0.7040269E+03 -0.7521311E-02 -0.2149642E-02  0.1525879E-03 -0.2098083E-04 -0.9701277E-10 -0.2000888E-10
  0.4000000E+00  0.1239777E-03  0.3328323E-03  0.6465912E-02 -0.1356602E-03  0.3487754E+05  0.1092102E+04  0.1227856E-01 -0.1429677E-02 -0.2006531E-01  0.4577637E-04  0.1728040E-09 -0.1091394E-10
  0.5000000E+00  0.9475708E-02  0.3051758E-03  0.1760483E-02 -0.1542568E-03  0.3464323E+05  0.1646589E+04  0.1400757E-01  0.2104640E-02 -0.1345825E-01  0.6637573E-03  0.4365575E-10  0.2546585E-10
  0.6000000E+00  0.6491343E-02  0.1087189E-02 -0.1043479E-02 -0.6179810E-03  0.3420340E+05  0.2395487E+04 -0.2899170E-02  0.1528025E-02 -0.1527150E-01 -0.8449554E-03  0.3637979E-10 -0.3637979E-10
  0.7000000E+00  0.9912764E-02 -0.1026154E-02 -0.1151221E-03 -0.1735687E-03  0.3343699E+05  0.3248199E+04 -0.2561297E-02 -0.6564379E-02 -0.3662109E-02 -0.6275177E-03 -0.2078845E-09  0.2910383E-10
  0.8000000E+00 -0.2188683E-02  0.1060486E-02 -0.9226799E-03  0.2813339E-03  0.3242277E+05  0.4011453E+04 -0.4887581E-03 -0.2124310E-02  0.1390457E-01 -0.2326965E-03 -0.2091838E-09 -0.9458745E-10
  0.9000000E+00 -0.8455913E-02  0.8773804E-03  0.9928809E-03  0.2002716E-03  0.3137658E+05  0.4536729E+04 -0.6294250E-03 -0.6841660E-02 -0.7222494E-02 -0.3524780E-02  0.2829539E-09 -0.8731149E-10
  0.1000000E+01  0.2517700E-03 -0.1113892E-02 -0.1883984E-02  0.6160736E-03  0.3050224E+05  0.4775458E+04 -0.1407623E-02 -0.7028580E-02 -0.7980347E-02  0.5012512E-02 -0.3637979E-10  0.0000000E+00
  0.1100000E+01  0.2982400E-03 -0.2593994E-03  0.3056093E-03 -0.2765656E-04  0.2963857E+05  0.4710462E+04 -0.9259310E-03  0.7829666E-02 -0.6186745E-02 -0.3845215E-02  0.6614507E-11  0.2182787E-09
  0.1200000E+01  0.1184146E-02 -0.5035400E-03 -0.1218915E-02 -0.6961823E-03  0.2905970E+05  0.4403373E+04 -0.1306534E-02  0.1478672E-02 -0.6434123E-02 -0.3822327E-02 -0.1621932E-09 -0.5820766E-10
  0.1300000E+01  0.1498105E-02 -0.8468628E-03  0.8806966E-03 -0.3585815E-03  0.2877136E+05  0.3957158E+04 -0.3409753E-02 -0.3150463E-02 -0.7335957E-02 -0.5264282E-03  0.9843750E-11  0.4365575E-10
  0.1400000E+01  0.1717295E-02 -0.7095337E-03 -0.7154261E-03 -0.1182556E-02  0.2851656E+05  0.3312670E+04 -0.8249283E-02  0.4098415E-03 -0.1116071E-01 -0.1995087E-02 -0.1818989E-10 -0.4365575E-10
  0.1500000E+01  0.9841919E-03 -0.1876831E-02  0.1964569E-03  0.2351761E-02  0.2855889E+05  0.2763966E+04 -0.6070455E-02 -0.3214359E-02 -0.5462646E-02 -0.1214981E-02 -0.2425319E-11  0.7275958E-10
  0.1600000E+01  0.5793571E-03 -0.3890991E-03  0.6377697E-04  0.1449585E-03  0.2859965E+05  0.2082856E+04 -0.7505417E-02  0.3727674E-02 -0.3671646E-02  0.8296967E-03 -0.4092726E-10 -0.1746230E-09
  0.1700000E+01  0.1178068E-02  0.4005432E-02  0.4412146E-03 -0.1232147E-02  0.2874959E+05  0.1569069E+04  0.5401162E-02 -0.1496077E-03 -0.4362219E-02 -0.1111984E-02  0.4279975E-10  0.1309672E-09
  0.1800000E+01  0.1513163E-02  0.1632690E-02  0.5563100E-04 -0.1823425E-02  0.2897861E+05  0.1192228E+04 -0.1149919E-01 -0.9024143E-03 -0.8578830E-02 -0.2457619E-02 -0.2425319E-10 -0.4365575E-10
  0.1900000E+01  0.2304880E-02  0.3356934E-02  0.3799639E-03  0.1166344E-02  0.2914501E+05  0.7173473E+03 -0.2475538E-02 -0.9585023E-03 -0.3485429E-02 -0.2931118E-02 -0.3829451E-10  0.5093170E-10
  0.2000000E+01  0.1514435E-02  0.3593445E-02  0.2388954E-03  0.9937286E-03  0.2934199E+05  0.5883974E+03 -0.3606796E-02 -0.1491666E-02 -0.2029419E-02 -0.2736568E-02  0.3637979E-10 -0.4365575E-10
  0.2100000E+01  0.1133510E-02  0.1071930E-02 -0.1448677E-03 -0.2822876E-03  0.2952206E+05  0.3605284E+03  0.5249750E-03  0.1747608E-03 -0.3502256E-02 -0.4642010E-03 -0.5543587E-10 -0.2910383E-10
  0.2200000E+01 -0.1733953E-02 -0.5073547E-03  0.1146143E-02 -0.4372597E-03  0.2967154E+05  0.1880426E+03  0.7431724E-02  0.1095369E-02  0.3703724E-02  0.9691715E-03 -0.9921760E-11 -0.6548362E-10
  0.2300000E+01 -0.2159450E-02  0.1518250E-02  0.2877609E-03 -0.4158020E-03  0.2978949E+05  0.1802079E+03  0.7745494E-02 -0.1343042E-03  0.4458220E-02 -0.1183748E-03  0.2530768E-10  0.1091394E-10
  0.2400000E+01  0.2028147E-02  0.2706528E-02  0.1243750E-03 -0.7295609E-04  0.2989870E+05  0.1190470E+03  0.1034737E-02 -0.3483593E-03  0.2250671E-02 -0.1145959E-02  0.4850638E-10 -0.1091394E-10
  0.2500000E+01 -0.2359009E-02 -0.5168915E-03  0.3089905E-03 -0.5455017E-03  0.2998493E+05  0.8728712E+02 -0.1493835E-02  0.1254603E-03  0.1274414E-01  0.5359650E-03 -0.1396984E-09  0.1091394E-10
  0.2600000E+01  0.1916152E-02  0.1102448E-02  0.1287460E-03 -0.2555847E-03  0.3004582E+05  0.1063954E+03  0.1870669E-02  0.3851950E-05 -0.6291316E-02 -0.3042221E-03 -0.9234870E-10  0.7275958E-11
  0.2700000E+01 -0.4344516E-02 -0.1295090E-02 -0.8272242E-03 -0.3552437E-04  0.3011977E+05  0.7031039E+02  0.3096969E-02  0.4258007E-04  0.8386683E-02  0.4178286E-04  0.2694799E-10  0.0000000E+00
  0.2800000E+01 -0.2044950E-02 -0.8730888E-03  0.8494513E-03 -0.2098083E-04  0.3016605E+05  0.6018290E+02  0.2993175E-02  0.8240342E-04  0.3062657E-02  0.1456738E-03 -0.8835092E-10  0.5456968E-11
  0.2900000E+01 -0.3612124E-02 -0.7963181E-04  0.1114812E-02 -0.1239777E-04  0.3018674E+05  0.7958985E+02  0.2921532E-02  0.8905679E-04  0.9797195E-02 -0.9596348E-04  0.1756266E-10 -0.1364242E-11
  0.3000000E+01 -0.3110250E-02  0.2040267E-03  0.2328555E-03  0.1958758E-04  0.3021495E+05  0.8849134E+02  0.3372192E-02 -0.1593083E-03  0.5971273E-02  0.7510185E-05 -0.4123043E-10 -0.3069545E-11
  0.3100000E+01 -0.3678107E-02 -0.6790161E-03  0.5395951E-03  0.8189678E-04  0.3024661E+05 -0.9667699E+01 -0.3890991E-02 -0.6989762E-04  0.4075573E-02  0.6809235E-03 -0.9388333E-11  0.1818989E-11
  0.3200000E+01 -0.6544590E-03 -0.4982948E-04  0.5690753E-03  0.1347065E-04  0.3030311E+05  0.3952966E+02 -0.2198219E-02 -0.1004897E-03  0.1049042E-02 -0.5850196E-04  0.2273737E-10  0.2046363E-11
  0.3300000E+01  0.5433054E-04  0.1837611E-03 -0.9230411E-03 -0.2107769E-04  0.3030235E+05  0.4238033E+02  0.4656243E-02  0.9262189E-04  0.5511660E-02  0.1758337E-05  0.1984352E-10  0.3296918E-11
  0.3400000E+01  0.1102896E-02 -0.1478195E-04 -0.5032034E-03  0.1329184E-04  0.3030793E+05  0.3753626E+02  0.2461602E-02 -0.5045533E-04 -0.1274558E-02 -0.1636147E-04 -0.4600973E-10 -0.2273737E-11
  0.3500000E+01  0.6147112E-03  0.5340576E-04  0.5268370E-03 -0.7808208E-05  0.3033228E+05  0.3013319E+02 -0.1065935E-02  0.1215898E-03 -0.3435407E-02 -0.2324581E-05  0.2078845E-11  0.6821210E-12
  0.3600000E+01  0.1574622E-02  0.4935265E-04 -0.4670355E-03 -0.4172325E-05  0.3039685E+05  0.1942369E+02 -0.1572503E-02  0.2604537E-04 -0.2712674E-03 -0.1500547E-04  0.5355913E-10  0.4547474E-12
  0.3700000E+01  0.1161936E-02  0.2288818E-04 -0.1393524E-02  0.4246831E-05  0.3041463E+05  0.1121595E+02  0.2288818E-03  0.8658040E-04 -0.1847551E-02  0.2429634E-04  0.9537404E-10  0.2273737E-12
  0.3800000E+01  0.4627830E-03  0.6878376E-04 -0.5464805E-03  0.3576279E-05  0.3042258E+05  0.5625128E+01 -0.4802503E-02  0.9089708E-05 -0.6167763E-02 -0.5140901E-05 -0.6797276E-10 -0.2273737E-12
  0.3900000E+01 -0.6299141E-03  0.3886223E-04  0.2306852E-02 -0.2175570E-05  0.3044542E+05  0.9137523E+00  0.6592579E-03 -0.1709443E-05  0.1565004E-03 -0.4122872E-04  0.0000000E+00  0.6821210E-12
  0.4000000E+01 -0.2703667E-03 -0.1192093E-04  0.1141548E-02 -0.9417534E-05  0.3032241E+05 -0.2247654E+01 -0.2559662E-02  0.1520850E-04 -0.6195068E-02 -0.2103113E-04  0.1728040E-10 -0.2273737E-12
  0.4100000E+01  0.8927322E-03  0.1096725E-04 -0.8289989E-03  0.0000000E+00  0.3035255E+05 -0.3786062E+01 -0.3282501E-02 -0.2386980E-05 -0.1979921E-02 -0.9242445E-05  0.4170366E-10  0.0000000E+00
  0.4200000E+01  0.2349672E-02  0.6568432E-04  0.1620906E-02  0.3963709E-05  0.3038046E+05 -0.4145855E+01 -0.7084438E-04 -0.5867332E-07  0.4504976E-03  0.2142042E-04 -0.4764020E-10  0.2273737E-12
  0.4300000E+01 -0.1812868E-02  0.8094311E-04 -0.2927004E-03  0.4842877E-05  0.3040328E+05 -0.3368764E+01  0.3921154E-03  0.1350418E-05  0.1234897E-02  0.2863258E-04  0.6895239E-10  0.7958079E-12
  0.4400000E+01 -0.1647256E-03  0.1288652E-03  0.4473058E-03  0.8918345E-05  0.3042063E+05 -0.2651030E+01 -0.5519173E-02  0.2641696E-05  0.1034823E-01  0.5556084E-04 -0.5580990E-10 -0.1136868E-12
  0.4500000E+01 -0.1360151E-02  0.6127357E-04 -0.1165602E-05  0.7390976E-05  0.3043641E+05 -0.1996721E+01 -0.1605564E-02 -0.4060799E-05  0.8816189E-02  0.1535565E-04  0.1382432E-09  0.2273737E-12
  0.4600000E+01 -0.1761395E-02  0.3576279E-04 -0.6793893E-03  0.5543232E-05  0.3045031E+05 -0.1979210E+01 -0.3937431E-02  0.1005305E-04  0.3516156E-02  0.2726354E-04 -0.4547474E-10 -0.2273737E-12
  0.4700000E+01 -0.1129800E-02 -0.1107454E-03 -0.3268364E-03  0.2831221E-05  0.3046308E+05  0.3372001E+01  0.3994881E-02  0.1236284E-04  0.8454019E-02 -0.4842319E-04 -0.1292644E-09 -0.6821210E-12
  0.4800000E+01  0.1573960E-02 -0.2348423E-04  0.4197160E-03  0.4857779E-05  0.3047398E+05  0.1296516E+01 -0.5280177E-02 -0.1702155E-04 -0.2237956E-02  0.7603317E-05  0.7806496E-10  0.2273737E-12
  0.4900000E+01  0.7331615E-03  0.2312660E-04 -0.2528696E-03 -0.3129244E-06  0.3048552E+05  0.1106800E+01  0.8154110E-02 -0.6877701E-05  0.2740354E-03  0.2919137E-04 -0.8946458E-10  0.3410605E-12
  0.5000000E+01  0.1964378E-02  0.1224876E-04  0.5133867E-03  0.4693866E-06  0.3049500E+05  0.9445903E+00 -0.2264404E-02  0.7010065E-05 -0.2856445E-02  0.1159590E-04 -0.1335138E-09 -0.5684342E-13
Zone t="Motion of body    1 in DoF   4",I=    50,F=POINT
  0.1000000E+00  0.5280972E-03 -0.8585630E-09  0.9292730E+05  0.1985839E+00  0.4631281E-03 -0.5107722E-08  0.1987526E+06  0.2380225E+00  0.7486343E-03  0.5347829E-08  0.7571543E-09  0.2686781E-11